<LesHouchesEvents version="3.0">
<!--
file generated with POWHEG-BOX-V2
SVN status Begin
/data/cmszfs1/user/lesko/LHECreator/SanityCheck3/CMSSW_7_1_20/src/myZ2ee/POWHEG-BOX
no svn repository found
/data/cmszfs1/user/lesko/LHECreator/SanityCheck3/CMSSW_7_1_20/src/myZ2ee/POWHEG-BOX/Z
no svn repository found
SVN status End
Process: Z
Input file powheg.input contained:
vdecaymode 2      !(1:leptonic decay, 2:muonic decay, 3: tauonic decay,...)

numevts 2000
ih1   1           ! hadron 1 (1 for protons, -1 for antiprotons)
ih2   1           ! hadron 2 (1 for protons, -1 for antiprotons)
ndns1 131         ! pdf set for hadron 1 (mlm numbering)
ndns2 131         ! pdf set for hadron 2 (mlm numbering)
ebeam1 6500d0      ! energy of beam 1
ebeam2 6500d0      ! energy of beam 2

! To be set only if using LHA pdfs
lhans1 10800      ! pdf set for hadron 1 (LHA numbering)
lhans2 10800      ! pdf set for hadron 2 (LHA numbering)
! To be set only if using different pdf sets for the two incoming hadrons
! QCDLambda5  0.25 ! for not equal pdf sets

! Parameters to allow or not the use of stored data
use-old-grid    1 ! if 1 use old grid if file pwggrids.dat is present (<> 1 regenerate)
use-old-ubound  1 ! if 1 use norm of upper bounding function stored in pwgubound.dat, if present; <>

ncall1 100000   ! number of calls for initializing the integration grid
itmx1    5     ! number of iterations for initializing the integration grid
ncall2 100000   ! number of calls for computing the integral and finding upper bound
itmx2    5     ! number of iterations for computing the integral and finding upper bound
foldcsi   1    ! number of folds on csi integration
foldy     1    ! number of folds on  y  integration
foldphi   1    ! number of folds on phi integration
nubound 20000  ! number of bbarra calls to setup norm of upper bounding function
icsimax  1     ! <= 100, number of csi subdivision when computing the upper bounds
iymax    1     ! <= 100, number of y subdivision when computing the upper bounds
xupbound 2d0   ! increase upper bound for radiation generation

! OPTIONAL PARAMETERS

ptsqmin    0.8    ! (default 0.8 GeV) minimum pt for generation of radiation
charmthr   1.5    ! (default 1.5 GeV) charm treshold for gluon splitting
bottomthr  5.0    ! (default 5.0 GeV) bottom treshold for gluon splitting
charmthrpdf  1.5  ! (default 1.5 GeV) pdf charm treshold
bottomthrpdf 5.0  ! (default 5.0 GeV) pdf bottom treshold


mass_low  20  !  M_Z < mass_low


#renscfact  1d0   ! (default 1d0) ren scale factor: muren  = muref * renscfact
#facscfact  1d0   ! (default 1d0) fac scale factor: mufact = muref * facscfact
#ptsupp     0d0   ! (default 0d0)  mass param for Born suppression factor (generation cut) If < 0 su
#bornonly   0      ! (default 0) if 1 do Born only
#smartsig   1      ! (default 1) remember equal amplitudes (0 do not remember)
#withsubtr  0      ! (default 1) subtract real counterterms (0 do not subtract)
#withdamp    1      ! (default 0, do not use) use Born-zero damping factor
testplots  1      ! (default 0, do not) do NLO and PWHG distributions
#hfact    100d0    ! (default no dumping factor) dump factor for high-pt radiation: > 0 dumpfac=h**2
#testsuda  1       ! (default 0, do not test) test Sudakov form factor
#radregion 1       ! (default all regions) only generate radiation in the selected singular region

iseed 0
#rand1     -1      ! initialize random number sequence
#rand2     -1      ! initialize random number sequence

#iupperisr 1 ! (default 1) choice of ISR upper bounding functional form
#iupperfsr 2 ! (default 2) choice of FSR upper bounding functional form

pdfreweight 1 ! (default 0) write extra pdf infos on LHEF
!storeinfo_rwgt 0 ! store weight information


#manyseeds 1

#parallelstage 4

#xgriditeration 1 1
End of powheg.input content
PDF package: lha
 Random number generator initialized with:     54217137      18335192             0
-->
<init>
     2212     2212  6.50000E+03  6.50000E+03      0      0  10800  10800     -4      1
  3188.3499755951621   1.9611527329447083  1.00000000000E-00 10013
</init>
<event>
      6  10013  3.31628E+03  6.32672E+00 -1.00000E+00  2.21878E-01
       2    -1     0     0   501     0  0.000000000E+00  0.000000000E+00  1.569027457E+02  1.569027457E+02  0.000000000E+00  0.00000E+00  9.000E+00
      -2    -1     0     0     0   511  0.000000000E+00  0.000000000E+00 -1.514714044E+01  1.514714044E+01  0.000000000E+00  0.00000E+00  9.000E+00
      23     2     1     2     0     0 -4.052212866E+00  4.858695715E+00  1.344481245E+02  1.623841411E+02  9.084208128E+01  0.00000E+00  9.000E+00
      13     1     3     3     0     0  7.046103131E+00  4.392551909E+01  4.102744819E+01  6.051744761E+01  1.056583668E-01  0.00000E+00  9.000E+00
     -13     1     3     3     0     0 -1.109831600E+01 -3.906682337E+01  9.342067634E+01  1.018666935E+02  1.056583668E-01  0.00000E+00  9.000E+00
      21     1     1     2   501   511  4.052212866E+00 -4.858695715E+00  7.307480739E+00  9.665745078E+00  1.460009660E-07  0.00000E+00  9.000E+00
#pdf   2 -2 0.22778076E-01 0.21437316E-02 0.90842081E+02 0.66952829E+00 0.10615266E+01
#rwgt            1           7   640.24318101013500         54217137    18335193           0
</event>
<event>
      6  10013  3.31628E+03  1.65363E+01 -1.00000E+00  1.73440E-01
       5    -1     0     0   501     0  0.000000000E+00  0.000000000E+00  9.954755691E+00  9.954755691E+00  0.000000000E+00  0.00000E+00  9.000E+00
      21    -1     0     0   511   501  0.000000000E+00  0.000000000E+00 -3.862801985E+02  3.862801985E+02  0.000000000E+00  0.00000E+00  9.000E+00
      23     2     1     2     0     0  5.410504837E+00 -1.562607091E+01 -3.561250672E+02  3.701293450E+02  9.948477727E+01  0.00000E+00  9.000E+00
      13     1     3     3     0     0  2.707748338E+01  3.576164713E+01 -1.465700917E+02  1.532804243E+02  1.056583668E-01  0.00000E+00  9.000E+00
     -13     1     3     3     0     0 -2.166697854E+01 -5.138771805E+01 -2.095549755E+02  2.168489208E+02  1.056583668E-01  0.00000E+00  9.000E+00
       5     1     1     2   511     0 -5.410504837E+00  1.562607091E+01 -2.020037559E+01  2.610560915E+01  0.000000000E+00  0.00000E+00  9.000E+00
#pdf   5 -5 0.10626720E-02 0.55109607E-01 0.99484777E+02 0.84836812E+00 0.43213035E-01
#rwgt            1          10   65.443190117893977         54217137    18335283           0
</event>
<event>
      6  10013  3.31628E+03  1.62034E+01 -1.00000E+00  1.74237E-01
      21    -1     0     0   501   511  0.000000000E+00  0.000000000E+00  1.445911626E+02  1.445911626E+02  0.000000000E+00  0.00000E+00  9.000E+00
      -2    -1     0     0     0   501  0.000000000E+00  0.000000000E+00 -8.633421427E+00  8.633421427E+00  0.000000000E+00  0.00000E+00  9.000E+00
      23     2     1     2     0     0  7.083330035E+00  1.457320088E+01  1.158704270E+02  1.274166020E+02  5.046268767E+01  0.00000E+00  9.000E+00
      13     1     3     3     0     0  1.018523234E+01 -1.765295229E+01  3.893344325E+01  4.394530520E+01  1.056583668E-01  0.00000E+00  9.000E+00
     -13     1     3     3     0     0 -3.101902302E+00  3.222615317E+01  7.693698379E+01  8.347129677E+01  1.056583668E-01  0.00000E+00  9.000E+00
      -2     1     1     2     0   511 -7.083330035E+00 -1.457320088E+01  2.008731411E+01  2.580798203E+01  0.000000000E+00  0.00000E+00  9.000E+00
#pdf   2 -2 0.17818348E-01 0.84564214E-03 0.50462688E+02 0.67129496E+00 0.13894609E+01
#rwgt            1           7   1545.8170852964724         54217137    18335688           0
</event>
<event>
      6  10013  3.31628E+03  9.25359E+00 -1.00000E+00  1.99673E-01
      -3    -1     0     0     0   501  0.000000000E+00  0.000000000E+00  4.304992382E+02  4.304992382E+02  0.000000000E+00  0.00000E+00  9.000E+00
      21    -1     0     0   501   511  0.000000000E+00  0.000000000E+00 -1.946694423E+01  1.946694423E+01  0.000000000E+00  0.00000E+00  9.000E+00
      23     2     1     2     0     0  3.980864672E+00  8.353538633E+00  4.244102218E+02  4.336997187E+02  8.880191855E+01  0.00000E+00  9.000E+00
      13     1     3     3     0     0 -3.252659108E+01 -2.376597233E+01  2.121712532E+02  2.159616920E+02  1.056583668E-01  0.00000E+00  9.000E+00
     -13     1     3     3     0     0  3.650745575E+01  3.211951096E+01  2.122389686E+02  2.177380267E+02  1.056583668E-01  0.00000E+00  9.000E+00
      -3     1     1     2     0   511 -3.980864672E+00 -8.353538633E+00 -1.337792780E+01  1.626646376E+01  0.000000000E+00  0.00000E+00  9.000E+00
#pdf  -3  3 0.65652968E-01 0.71072833E-03 0.88801919E+02 0.11154136E+00 0.16053033E+01
#rwgt            1           3   231.22331741827210         54217137    18335729           0
</event>
<event>
      6  10013  3.31628E+03  4.05397E+00 -1.00000E+00  2.61999E-01
       2    -1     0     0   511     0  0.000000000E+00  0.000000000E+00  3.019839793E+03  3.019839793E+03  0.000000000E+00  0.00000E+00  9.000E+00
      -2    -1     0     0     0   501  0.000000000E+00  0.000000000E+00 -1.051033297E+00  1.051033297E+00  0.000000000E+00  0.00000E+00  9.000E+00
      23     2     1     2     0     0 -3.524621501E+00 -2.002930704E+00  2.491364149E+03  2.493450636E+03  1.019034594E+02  0.00000E+00  9.000E+00
      13     1     3     3     0     0  3.743703884E+01  1.396692942E+01  4.975774132E+02  4.991792267E+02  1.056583668E-01  0.00000E+00  9.000E+00
     -13     1     3     3     0     0 -4.096166034E+01 -1.596986013E+01  1.993786736E+03  1.994271409E+03  1.056583668E-01  0.00000E+00  9.000E+00
      21     1     1     2   511   501  3.524621501E+00  2.002930704E+00  5.274246113E+02  5.274401912E+02  7.629394531E-06  0.00000E+00  9.000E+00
#pdf   2 -2 0.38314422E+00 0.16037212E-03 0.10190346E+03 0.22535981E+00 0.29521474E+01
#rwgt            1           7   2164.9309460768159         54217137    18335842           0
</event>
<event>
      6  10013 -3.31628E+03  3.88750E+00 -1.00000E+00  2.66313E-01
       2    -1     0     0   501     0  0.000000000E+00  0.000000000E+00  9.361519284E+00  9.361519284E+00  0.000000000E+00  0.00000E+00  9.000E+00
      -2    -1     0     0     0   511  0.000000000E+00  0.000000000E+00 -5.427923157E+01  5.427923157E+01  0.000000000E+00  0.00000E+00  9.000E+00
      23     2     1     2     0     0 -1.338763115E+00  3.649708003E+00 -1.967848129E+01  3.810388659E+01  3.239677287E+01  0.00000E+00  9.000E+00
      13     1     3     3     0     0  2.339811170E+00 -1.083708876E+01  2.493529900E+00  1.136424499E+01  1.056583668E-01  0.00000E+00  9.000E+00
     -13     1     3     3     0     0 -3.678574285E+00  1.448679676E+01 -2.217201119E+01  2.673964160E+01  1.056583668E-01  0.00000E+00  9.000E+00
      21     1     1     2   501   511  1.338763115E+00 -3.649708003E+00 -2.523923100E+01  2.553686427E+01  3.371747881E-07  0.00000E+00  9.000E+00
#pdf   2 -2 0.14072435E-02 0.44131383E-02 0.32396773E+02 0.11369362E+01 0.68069475E+00
#rwgt            1           7  -254.52001669387931         54217137    18336020           0
</event>
<event>
      6  10013  3.31628E+03  5.37896E+00 -1.00000E+00  2.33019E-01
      -3    -1     0     0     0   501  0.000000000E+00  0.000000000E+00  8.941487957E+00  8.941487957E+00  0.000000000E+00  0.00000E+00  9.000E+00
       3    -1     0     0   511     0  0.000000000E+00  0.000000000E+00 -3.275367269E+02  3.275367269E+02  0.000000000E+00  0.00000E+00  9.000E+00
      23     2     1     2     0     0 -5.116843087E+00  1.658663132E+00 -2.258026484E+02  2.435298522E+02  9.105503653E+01  0.00000E+00  9.000E+00
      13     1     3     3     0     0 -7.714770671E+00 -5.379257115E+00  6.290615680E+00  1.131534811E+01  1.056583668E-01  0.00000E+00  9.000E+00
     -13     1     3     3     0     0  2.597927585E+00  7.037920247E+00 -2.320932640E+02  2.322145041E+02  1.056583668E-01  0.00000E+00  9.000E+00
      21     1     1     2   511   501  5.116843087E+00 -1.658663132E+00 -9.279259055E+01  9.294836259E+01  1.907348633E-06  0.00000E+00  9.000E+00
#pdf  -3  3 0.13612579E-02 0.36039671E-01 0.91055037E+02 0.12422653E+01 0.20418780E+00
#rwgt            1           3   370.68109942687437         54217137    18336069           0
</event>
<event>
      6  10013  3.31628E+03  2.64505E+00 -1.00000E+00  3.14356E-01
      -2    -1     0     0     0   501  0.000000000E+00  0.000000000E+00  9.836906238E+00  9.836906238E+00  0.000000000E+00  0.00000E+00  9.000E+00
      21    -1     0     0   501   511  0.000000000E+00  0.000000000E+00 -2.420255793E+01  2.420255793E+01  0.000000000E+00  0.00000E+00  9.000E+00
      23     2     1     2     0     0  2.391320628E+00  1.130424175E+00 -5.195142890E+00  2.449512004E+01  2.379128250E+01  0.00000E+00  9.000E+00
      13     1     3     3     0     0 -2.617864318E+00 -1.073765311E+01 -2.587997799E+00  1.135162121E+01  1.056583668E-01  0.00000E+00  9.000E+00
     -13     1     3     3     0     0  5.009184946E+00  1.186807728E+01 -2.607145091E+00  1.314349883E+01  1.056583668E-01  0.00000E+00  9.000E+00
      -2     1     1     2     0   511 -2.391320628E+00 -1.130424175E+00 -9.170508805E+00  9.544344132E+00  0.000000000E+00  0.00000E+00  9.000E+00
#pdf  -2  2 0.14755226E-02 0.22698812E-02 0.23791282E+02 0.97236937E+00 0.93637567E+00
#rwgt            1           4   736.55983060199549         54217137    18336122           0
</event>
<event>
      6  10013  3.31628E+03  1.51498E+01 -1.00000E+00  1.76931E-01
      21    -1     0     0   511   501  0.000000000E+00  0.000000000E+00  1.654887117E+00  1.654887117E+00  0.000000000E+00  0.00000E+00  9.000E+00
       2    -1     0     0   501     0  0.000000000E+00  0.000000000E+00 -2.884286956E+03  2.884286956E+03  0.000000000E+00  0.00000E+00  9.000E+00
      23     2     1     2     0     0 -3.063779809E+00  1.483672155E+01 -2.820846603E+03  2.822326131E+03  9.010946780E+01  0.00000E+00  9.000E+00
      13     1     3     3     0     0 -8.561906778E-01 -1.749700736E+00 -2.726918610E+03  2.726919308E+03  1.056583668E-01  0.00000E+00  9.000E+00
     -13     1     3     3     0     0 -2.207589131E+00  1.658642229E+01 -9.392799345E+01  9.540682351E+01  1.056583668E-01  0.00000E+00  9.000E+00
       2     1     1     2   511     0  3.063779809E+00 -1.483672155E+01 -6.178546605E+01  6.361571243E+01  0.000000000E+00  0.00000E+00  9.000E+00
#pdf  -2  2 0.11223465E-03 0.42808220E+00 0.90109468E+02 0.32625601E+01 0.17584947E+00
#rwgt            1           4   8958.3726190362922         54217137    18336277           0
</event>
<event>
      6  10013  3.31628E+03  1.95407E+01 -1.00000E+00  1.67164E-01
       2    -1     0     0   501     0  0.000000000E+00  0.000000000E+00  2.921876607E+03  2.921876607E+03  0.000000000E+00  0.00000E+00  9.000E+00
      21    -1     0     0   511   501  0.000000000E+00  0.000000000E+00 -2.649042806E-01  2.649042806E-01  0.000000000E+00  0.00000E+00  9.000E+00
      23     2     1     2     0     0  1.115102164E+00 -1.950889367E+01  2.280444192E+03  2.280676300E+03  2.601600493E+01  0.00000E+00  9.000E+00
      13     1     3     3     0     0  2.077055917E+00 -2.229547020E+01  2.244370339E+03  2.244482041E+03  1.056583668E-01  0.00000E+00  9.000E+00
     -13     1     3     3     0     0 -9.619537522E-01  2.786576533E+00  3.607385362E+01  3.619425980E+01  1.056583668E-01  0.00000E+00  9.000E+00
       2     1     1     2   511     0 -1.115102164E+00  1.950889367E+01  6.411675107E+02  6.414652112E+02  0.000000000E+00  0.00000E+00  9.000E+00
#pdf   2 -2 0.28053555E+00 0.14276002E-04 0.26016005E+02 0.42638671E+00 0.43357291E+01
#rwgt            1           7   15120.290018904747         54217137    18336360           0
</event>
<event>
      6  10013  3.31628E+03  7.57137E+00 -1.00000E+00  2.10779E-01
       1    -1     0     0   511     0  0.000000000E+00  0.000000000E+00  5.905588079E+01  5.905588079E+01  0.000000000E+00  0.00000E+00  9.000E+00
      -1    -1     0     0     0   501  0.000000000E+00  0.000000000E+00 -4.181115171E+01  4.181115171E+01  0.000000000E+00  0.00000E+00  9.000E+00
      23     2     1     2     0     0 -7.253197650E+00 -2.171808406E+00  1.084977655E+01  9.095637936E+01  8.998899748E+01  0.00000E+00  9.000E+00
      13     1     3     3     0     0 -3.090410686E+01  1.276406915E+01 -2.763590490E+01  4.337902356E+01  1.056583668E-01  0.00000E+00  9.000E+00
     -13     1     3     3     0     0  2.365090921E+01 -1.493587756E+01  3.848568145E+01  4.757735580E+01  1.056583668E-01  0.00000E+00  9.000E+00
      21     1     1     2   511   501  7.253197650E+00  2.171808406E+00  6.394952527E+00  9.910653143E+00  8.429369702E-08  0.00000E+00  9.000E+00
#pdf   1 -1 0.78036705E-02 0.61403510E-02 0.89988997E+02 0.72923826E+00 0.67953165E+00
#rwgt            1           6   508.28816332573103         54217137    18336385           0
</event>
<event>
      6  10013  3.31628E+03  1.56345E+01 -1.00000E+00  1.75659E-01
       2    -1     0     0   511     0  0.000000000E+00  0.000000000E+00  4.134253020E+02  4.134253020E+02  0.000000000E+00  0.00000E+00  9.000E+00
      -2    -1     0     0     0   501  0.000000000E+00  0.000000000E+00 -7.682472129E+00  7.682472129E+00  0.000000000E+00  0.00000E+00  9.000E+00
      23     2     1     2     0     0  1.439797177E+01 -6.093958111E+00  2.973798156E+02  3.116227031E+02  9.181239810E+01  0.00000E+00  9.000E+00
      13     1     3     3     0     0  3.418528290E+01 -3.424660545E+01  2.390567074E+02  2.439048669E+02  1.056583668E-01  0.00000E+00  9.000E+00
     -13     1     3     3     0     0 -1.978731112E+01  2.815264734E+01  5.832310820E+01  6.771783626E+01  1.056583668E-01  0.00000E+00  9.000E+00
      21     1     1     2   511   501 -1.439797177E+01  6.093958111E+00  1.083630143E+02  1.094850711E+02  0.000000000E+00  0.00000E+00  9.000E+00
#pdf   2 -2 0.46181550E-01 0.10800589E-02 0.91812398E+02 0.63562401E+00 0.14067177E+01
#rwgt            1           7   1032.8077524582500         54217137    18336448           0
</event>
<event>
      6  10013  3.31628E+03  1.05056E+01 -1.00000E+00  1.93256E-01
       2    -1     0     0   501     0  0.000000000E+00  0.000000000E+00  1.960277815E+02  1.960277815E+02  0.000000000E+00  0.00000E+00  9.000E+00
      21    -1     0     0   511   501  0.000000000E+00  0.000000000E+00 -4.779575936E+00  4.779575936E+00  0.000000000E+00  0.00000E+00  9.000E+00
      23     2     1     2     0     0  1.466285980E+00 -1.040278637E+01  1.879439386E+02  1.897943588E+02  2.426121637E+01  0.00000E+00  9.000E+00
      13     1     3     3     0     0  6.331849392E+00  6.213193002E+00  7.664728832E+01  7.715901797E+01  1.056583668E-01  0.00000E+00  9.000E+00
     -13     1     3     3     0     0 -4.865563412E+00 -1.661597937E+01  1.112966503E+02  1.126353409E+02  1.056583668E-01  0.00000E+00  9.000E+00
       2     1     1     2   511     0 -1.466285980E+00  1.040278637E+01  3.304266974E+00  1.101299864E+01  0.000000000E+00  0.00000E+00  9.000E+00
#pdf   2 -2 0.26664261E-01 0.13061976E-03 0.24261216E+02 0.62920566E+00 0.21675477E+01
#rwgt            1           7   1642.5159743634001         54217137    18336527           0
</event>
<event>
      6  10013  3.31628E+03  4.65078E+00 -1.00000E+00  2.48845E-01
       2    -1     0     0   501     0  0.000000000E+00  0.000000000E+00  7.830183891E-01  7.830183891E-01  0.000000000E+00  0.00000E+00  9.000E+00
      -2    -1     0     0     0   511  0.000000000E+00  0.000000000E+00 -2.849479121E+02  2.849479121E+02  0.000000000E+00  0.00000E+00  9.000E+00
      23     2     1     2     0     0  1.683477998E+00 -4.335400065E+00 -1.707344149E+02  1.722051479E+02  2.197140724E+01  0.00000E+00  9.000E+00
      13     1     3     3     0     0 -1.718548171E+00  4.875322229E+00 -1.362993371E+02  1.363973703E+02  1.056583668E-01  0.00000E+00  9.000E+00
     -13     1     3     3     0     0  3.402026169E+00 -9.210722294E+00 -3.443507787E+01  3.580777763E+01  1.056583668E-01  0.00000E+00  9.000E+00
      21     1     1     2   501   511 -1.683477998E+00  4.335400065E+00 -1.134304788E+02  1.135257826E+02  0.000000000E+00  0.00000E+00  9.000E+00
#pdf   2 -2 0.11068089E-03 0.25808122E-01 0.21971407E+02 0.22264342E+01 0.28324647E+00
#rwgt            1           7   629.55513532385760         54217137    18336599           0
</event>
<event>
      6  10013 -3.31628E+03  3.02284E+00 -1.00000E+00  2.95734E-01
      21    -1     0     0   501   511  0.000000000E+00  0.000000000E+00  7.301748515E+01  7.301748515E+01  0.000000000E+00  0.00000E+00  9.000E+00
      -4    -1     0     0     0   501  0.000000000E+00  0.000000000E+00 -1.952406077E+00  1.952406077E+00  0.000000000E+00  0.00000E+00  9.000E+00
      23     2     1     2     0     0 -3.020692599E+00 -1.139573300E-01  6.590404854E+01  6.898877041E+01  2.017347909E+01  0.00000E+00  9.000E+00
      13     1     3     3     0     0 -2.524392490E+00  9.763664651E+00  2.627385277E+01  2.814299572E+01  1.056583668E-01  0.00000E+00  9.000E+00
     -13     1     3     3     0     0 -4.963001085E-01 -9.877621981E+00  3.963019578E+01  4.084577470E+01  1.056583668E-01  0.00000E+00  9.000E+00
      -4     1     1     2     0   511  3.020692599E+00  1.139573300E-01  5.161030525E+00  5.981120808E+00  0.000000000E+00  0.00000E+00  9.000E+00
#pdf   4 -4 0.10261807E-01 0.23466647E-03 0.20173479E+02 0.26706347E+00 0.13180074E+01
#rwgt            1           9  -1525.8967360809654         54217137    18336663           0
</event>
<event>
      6  10013  3.31628E+03  4.43260E+01 -1.00000E+00  1.42097E-01
       2    -1     0     0   501     0  0.000000000E+00  0.000000000E+00  7.782238224E+02  7.782238224E+02  0.000000000E+00  0.00000E+00  9.000E+00
      21    -1     0     0   511   501  0.000000000E+00  0.000000000E+00 -1.447210415E+01  1.447210415E+01  0.000000000E+00  0.00000E+00  9.000E+00
      23     2     1     2     0     0 -4.211937970E+01  1.381139897E+01  7.297735062E+02  7.368450914E+02  9.168708518E+01  0.00000E+00  9.000E+00
      13     1     3     3     0     0 -6.289124260E+01  1.367957730E+01  3.127189144E+02  3.192735032E+02  1.056583668E-01  0.00000E+00  9.000E+00
     -13     1     3     3     0     0  2.077186290E+01  1.318216750E-01  4.170545917E+02  4.175715882E+02  1.056583668E-01  0.00000E+00  9.000E+00
       2     1     1     2   511     0  4.211937970E+01 -1.381139897E+01  3.397821210E+01  5.585083514E+01  0.000000000E+00  0.00000E+00  9.000E+00
#pdf   2 -2 0.10156990E+00 0.48973891E-03 0.91687085E+02 0.60103597E+00 0.19115984E+01
#rwgt            1           7   1122.6866945002805         54217137    18336772           0
</event>
<event>
      6  10013  3.31628E+03  1.03740E+02 -1.00000E+00  1.23093E-01
      21    -1     0     0   511   501  0.000000000E+00  0.000000000E+00  1.018023466E+03  1.018023466E+03  0.000000000E+00  0.00000E+00  9.000E+00
       4    -1     0     0   501     0  0.000000000E+00  0.000000000E+00 -1.699169853E+01  1.699169853E+01  0.000000000E+00  0.00000E+00  9.000E+00
      23     2     1     2     0     0  8.438633378E+01  6.033937209E+01  3.586628701E+02  3.843234607E+02  9.112395345E+01  0.00000E+00  9.000E+00
      13     1     3     3     0     0  4.443733328E+01  6.575712824E+01  3.152161848E+02  3.250537352E+02  1.056583668E-01  0.00000E+00  9.000E+00
     -13     1     3     3     0     0  3.994900050E+01 -5.417756144E+00  4.344668535E+01  5.926972544E+01  1.056583668E-01  0.00000E+00  9.000E+00
       4     1     1     2   511     0 -8.438633378E+01 -6.033937209E+01  6.423688973E+02  6.506917038E+02  0.000000000E+00  0.00000E+00  9.000E+00
#pdf  -4  4 0.37717794E-01 0.13026631E-02 0.91123953E+02 0.11612369E+00 0.10464461E+01
#rwgt            1           2   112.11678976911810         54217137    18336831           0
</event>
<event>
      6  10013  3.31628E+03  4.10231E+00 -1.00000E+00  2.60806E-01
       2    -1     0     0   501     0  0.000000000E+00  0.000000000E+00  1.313837683E+02  1.313837683E+02  0.000000000E+00  0.00000E+00  9.000E+00
      21    -1     0     0   511   501  0.000000000E+00  0.000000000E+00 -8.990358698E+00  8.990358698E+00  0.000000000E+00  0.00000E+00  9.000E+00
      23     2     1     2     0     0 -3.659301994E+00  1.854304975E+00  1.297769761E+02  1.319274713E+02  2.336589847E+01  0.00000E+00  9.000E+00
      13     1     3     3     0     0 -3.880827442E+00  4.788238544E+00  7.926091045E+00  1.004102250E+01  1.056583668E-01  0.00000E+00  9.000E+00
     -13     1     3     3     0     0  2.215254485E-01 -2.933933569E+00  1.218508851E+02  1.218864488E+02  1.056583668E-01  0.00000E+00  9.000E+00
       2     1     1     2   511     0  3.659301994E+00 -1.854304975E+00 -7.383566522E+00  8.446655706E+00  0.000000000E+00  0.00000E+00  9.000E+00
#pdf   2 -2 0.19827842E-01 0.16293066E-03 0.23365898E+02 0.63642215E+00 0.19991129E+01
#rwgt            1           7   1441.6121546592469         54217137    18336858           0
</event>
<event>
      6  10013  3.31628E+03  1.61603E+01 -1.00000E+00  1.74343E-01
      -4    -1     0     0     0   501  0.000000000E+00  0.000000000E+00  1.498290484E+02  1.498290484E+02  0.000000000E+00  0.00000E+00  9.000E+00
       4    -1     0     0   511     0  0.000000000E+00  0.000000000E+00 -2.139976735E+01  2.139976735E+01  0.000000000E+00  0.00000E+00  9.000E+00
      23     2     1     2     0     0 -1.587286410E+01 -3.034553053E+00  1.216030770E+02  1.536859144E+02  9.257913167E+01  0.00000E+00  9.000E+00
      13     1     3     3     0     0  6.265391259E+00 -6.508521129E+00 -1.377065779E+01  1.646991665E+01  1.056583668E-01  0.00000E+00  9.000E+00
     -13     1     3     3     0     0 -2.213825536E+01  3.473968075E+00  1.353737348E+02  1.372159977E+02  1.056583668E-01  0.00000E+00  9.000E+00
      21     1     1     2   511   501  1.587286410E+01  3.034553053E+00  6.826204099E+00  1.754290140E+01  1.884864366E-07  0.00000E+00  9.000E+00
#pdf  -4  4 0.20860648E-01 0.24311498E-02 0.92579132E+02 0.20262087E+00 0.78133953E+00
#rwgt            1           2   219.11780023128495         54217137    18336934           0
</event>
<event>
      6  10013  3.31628E+03  5.31064E+01 -1.00000E+00  1.37570E-01
      21    -1     0     0   511   501  0.000000000E+00  0.000000000E+00  3.751298742E+00  3.751298742E+00  0.000000000E+00  0.00000E+00  9.000E+00
       1    -1     0     0   501     0  0.000000000E+00  0.000000000E+00 -1.625849360E+03  1.625849360E+03  0.000000000E+00  0.00000E+00  9.000E+00
      23     2     1     2     0     0  1.117341649E+01  5.191767893E+01 -9.933866180E+02  9.986502887E+02  8.755076015E+01  0.00000E+00  9.000E+00
      13     1     3     3     0     0  2.635111246E+01  6.382357731E+01 -4.842269171E+02  4.891252892E+02  1.056583668E-01  0.00000E+00  9.000E+00
     -13     1     3     3     0     0 -1.517769597E+01 -1.190589838E+01 -5.091597010E+02  5.095249995E+02  1.056583668E-01  0.00000E+00  9.000E+00
       1     1     1     2   511     0 -1.117341649E+01 -5.191767893E+01 -6.287114437E+02  6.309503705E+02  0.000000000E+00  0.00000E+00  9.000E+00
#pdf  -1  1 0.34618818E-03 0.13101496E+00 0.87550760E+02 0.21630581E+01 0.31874768E+00
#rwgt            1           5   1007.9391620785991         54217137    18337006           0
</event>
<event>
      6  10013  3.31628E+03  1.55809E+01 -1.00000E+00  1.75796E-01
       2    -1     0     0   501     0  0.000000000E+00  0.000000000E+00  5.048287979E+02  5.048287979E+02  0.000000000E+00  0.00000E+00  9.000E+00
      21    -1     0     0   511   501  0.000000000E+00  0.000000000E+00 -1.245210475E+00  1.245210475E+00  0.000000000E+00  0.00000E+00  9.000E+00
      23     2     1     2     0     0  6.784934799E+00 -1.402599343E+01  3.871691208E+02  3.886214994E+02  2.973176483E+01  0.00000E+00  9.000E+00
      13     1     3     3     0     0 -4.996001708E+00  4.852329230E+00  3.168574713E+01  3.244230058E+01  1.056583668E-01  0.00000E+00  9.000E+00
     -13     1     3     3     0     0  1.178093651E+01 -1.887832266E+01  3.554833737E+02  3.561791988E+02  1.056583668E-01  0.00000E+00  9.000E+00
       2     1     1     2   511     0 -6.784934799E+00  1.402599343E+01  1.164144666E+02  1.174525090E+02  0.000000000E+00  0.00000E+00  9.000E+00
#pdf   2 -2 0.52857873E-01 0.98956651E-04 0.29731765E+02 0.62843880E+00 0.25221782E+01
#rwgt            1           7   2137.7952017070306         54217137    18337044           0
</event>
<event>
      6  10013  3.31628E+03  1.58211E+01 -1.00000E+00  1.75184E-01
      21    -1     0     0   501   511  0.000000000E+00  0.000000000E+00  2.971083892E+01  2.971083892E+01  0.000000000E+00  0.00000E+00  9.000E+00
      -4    -1     0     0     0   501  0.000000000E+00  0.000000000E+00 -1.023444175E+02  1.023444175E+02  0.000000000E+00  0.00000E+00  9.000E+00
      23     2     1     2     0     0  1.333702233E+01  8.510665806E+00 -9.784614434E+01  1.022898222E+02  2.527908556E+01  0.00000E+00  9.000E+00
      13     1     3     3     0     0  1.063459234E+01  1.360767898E+01 -9.345888941E+01  9.504124712E+01  1.056583668E-01  0.00000E+00  9.000E+00
     -13     1     3     3     0     0  2.702429995E+00 -5.097013171E+00 -4.387254926E+00  7.248575075E+00  1.056583668E-01  0.00000E+00  9.000E+00
      -4     1     1     2     0   511 -1.333702233E+01 -8.510665806E+00  2.521256580E+01  2.976543418E+01  0.000000000E+00  0.00000E+00  9.000E+00
#pdf   4 -4 0.28975219E-03 0.13049963E-01 0.25279086E+02 0.13400172E+01 0.24080164E+00
#rwgt            1           9   394.78245893872281         54217137    18337087           0
</event>
<event>
      6  10013  3.31628E+03  2.09810E+00 -1.00000E+00  3.53435E-01
      -2    -1     0     0     0   501  0.000000000E+00  0.000000000E+00  5.166750160E+01  5.166750160E+01  0.000000000E+00  0.00000E+00  9.000E+00
       2    -1     0     0   511     0  0.000000000E+00  0.000000000E+00 -4.882611925E+01  4.882611925E+01  0.000000000E+00  0.00000E+00  9.000E+00
      23     2     1     2     0     0 -2.020229361E+00  5.663046169E-01  1.094720849E+01  9.212066170E+01  9.144382380E+01  0.00000E+00  9.000E+00
      13     1     3     3     0     0  1.822705293E+00  1.874158621E+01  4.751186646E+01  5.110731773E+01  1.056583668E-01  0.00000E+00  9.000E+00
     -13     1     3     3     0     0 -3.842934654E+00 -1.817528159E+01 -3.656465797E+01  4.101334397E+01  1.056583668E-01  0.00000E+00  9.000E+00
      21     1     1     2   511   501  2.020229361E+00 -5.663046169E-01 -8.105826132E+00  8.372959147E+00  1.192092896E-07  0.00000E+00  9.000E+00
#pdf  -2  2 0.79262117E-02 0.62424689E-02 0.91443824E+02 0.58739643E+00 0.85247747E+00
#rwgt            1           4   437.92725474593408         54217137    18337156           0
</event>
<event>
      6  10013  3.31628E+03  2.29915E+01 -1.00000E+00  1.61485E-01
       2    -1     0     0   501     0  0.000000000E+00  0.000000000E+00  6.468572117E+02  6.468572117E+02  0.000000000E+00  0.00000E+00  9.000E+00
      21    -1     0     0   511   501  0.000000000E+00  0.000000000E+00 -6.252847755E+00  6.252847755E+00  0.000000000E+00  0.00000E+00  9.000E+00
      23     2     1     2     0     0 -8.013238386E+00 -2.154987768E+01  5.953572946E+02  6.023566704E+02  8.862641208E+01  0.00000E+00  9.000E+00
      13     1     3     3     0     0  1.646508159E+01 -2.720101675E+01  7.588437389E+01  8.227662844E+01  1.056583668E-01  0.00000E+00  9.000E+00
     -13     1     3     3     0     0 -2.447831997E+01  5.651139064E+00  5.194729207E+02  5.200800419E+02  1.056583668E-01  0.00000E+00  9.000E+00
       2     1     1     2   511     0  8.013238386E+00  2.154987768E+01  4.524706942E+01  5.075338913E+01  0.000000000E+00  0.00000E+00  9.000E+00
#pdf   2 -2 0.89179846E-01 0.52116221E-03 0.88626412E+02 0.61049841E+00 0.18552728E+01
#rwgt            1           7   1315.2796701471586         54217137    18337498           0
</event>
<event>
      6  10013  3.31628E+03  5.69927E+00 -1.00000E+00  2.28916E-01
      -2    -1     0     0     0   511  0.000000000E+00  0.000000000E+00  8.074068097E+00  8.074068097E+00  0.000000000E+00  0.00000E+00  9.000E+00
       2    -1     0     0   501     0  0.000000000E+00  0.000000000E+00 -2.949739976E+02  2.949739976E+02  0.000000000E+00  0.00000E+00  9.000E+00
      23     2     1     2     0     0  5.525832143E+00  1.395299942E+00 -2.781564758E+02  2.926111281E+02  9.065189242E+01  0.00000E+00  9.000E+00
      13     1     3     3     0     0 -1.460398480E+01  4.033297954E+01 -1.811750163E+02  1.861838428E+02  1.056583668E-01  0.00000E+00  9.000E+00
     -13     1     3     3     0     0  2.012981694E+01 -3.893767960E+01 -9.698145947E+01  1.064272853E+02  1.056583668E-01  0.00000E+00  9.000E+00
      21     1     1     2   501   511 -5.525832143E+00 -1.395299942E+00 -8.743453687E+00  1.043693754E+01  1.192092896E-07  0.00000E+00  9.000E+00
#pdf  -2  2 0.11097054E-02 0.43818686E-01 0.90651892E+02 0.13887956E+01 0.63728240E+00
#rwgt            1           4   967.63517077782103         54217137    18337529           0
</event>
<event>
      6  10013  3.31628E+03  2.43939E+00 -1.00000E+00  3.26920E-01
      -2    -1     0     0     0   501  0.000000000E+00  0.000000000E+00  7.863878669E-01  7.863878669E-01  0.000000000E+00  0.00000E+00  9.000E+00
       2    -1     0     0   511     0  0.000000000E+00  0.000000000E+00 -3.663412381E+02  3.663412381E+02  0.000000000E+00  0.00000E+00  9.000E+00
      23     2     1     2     0     0  2.420429381E+00  3.035668588E-01 -2.197411740E+02  2.212935462E+02  2.605186036E+01  0.00000E+00  9.000E+00
      13     1     3     3     0     0  1.406512824E+01  1.980655303E+00 -1.335007235E+02  1.342542557E+02  1.056583668E-01  0.00000E+00  9.000E+00
     -13     1     3     3     0     0 -1.164469886E+01 -1.677088444E+00 -8.624045042E+01  8.703929049E+01  1.056583668E-01  0.00000E+00  9.000E+00
      21     1     1     2   511   501 -2.420429381E+00 -3.035668588E-01 -1.458136762E+02  1.458340797E+02  2.697398305E-06  0.00000E+00  9.000E+00
#pdf  -2  2 0.11889318E-03 0.33777993E-01 0.26051860E+02 0.22835583E+01 0.62779616E+00
#rwgt            1           4   1394.2124138091820         54217137    18337647           0
</event>
<event>
      6  10013  3.31628E+03  4.95827E+00 -1.00000E+00  2.43177E-01
      -1    -1     0     0     0   501  0.000000000E+00  0.000000000E+00  3.522558975E+00  3.522558975E+00  0.000000000E+00  0.00000E+00  9.000E+00
       1    -1     0     0   511     0  0.000000000E+00  0.000000000E+00 -6.314188922E+02  6.314188922E+02  0.000000000E+00  0.00000E+00  9.000E+00
      23     2     1     2     0     0  4.896688526E+00 -7.790580770E-01 -5.692803664E+02  5.761161500E+02  8.834646709E+01  0.00000E+00  9.000E+00
      13     1     3     3     0     0 -1.207548208E+01 -2.978953786E+01 -4.738667044E+02  4.749556806E+02  1.056583668E-01  0.00000E+00  9.000E+00
     -13     1     3     3     0     0  1.697217061E+01  2.901047978E+01 -9.541366205E+01  1.011604695E+02  1.056583668E-01  0.00000E+00  9.000E+00
      21     1     1     2   511   501 -4.896688526E+00  7.790580770E-01 -5.861596682E+01  5.882530116E+01  9.536743164E-07  0.00000E+00  9.000E+00
#pdf  -1  1 0.52500333E-03 0.87968991E-01 0.88346467E+02 0.18552206E+01 0.37931167E+00
#rwgt            1           5   1124.4072050516206         54217137    18337801           0
</event>
<event>
      6  10013  3.31628E+03  1.62025E+00 -1.00000E+00  4.11658E-01
      -2    -1     0     0     0   501  0.000000000E+00  0.000000000E+00  3.478881711E+00  3.478881711E+00  0.000000000E+00  0.00000E+00  9.000E+00
       2    -1     0     0   511     0  0.000000000E+00  0.000000000E+00 -1.225610580E+03  1.225610580E+03  0.000000000E+00  0.00000E+00  9.000E+00
      23     2     1     2     0     0  1.618217706E+00  8.122349324E-02 -5.227624945E+02  5.297183811E+02  8.554713534E+01  0.00000E+00  9.000E+00
      13     1     3     3     0     0  5.290987045E+00 -3.361357770E+01 -1.006331137E+02  1.062304189E+02  1.056583668E-01  0.00000E+00  9.000E+00
     -13     1     3     3     0     0 -3.672769338E+00  3.369480119E+01 -4.221293808E+02  4.234879623E+02  1.056583668E-01  0.00000E+00  9.000E+00
      21     1     1     2   511   501 -1.618217706E+00 -8.122349324E-02 -6.993692038E+02  6.993710806E+02  0.000000000E+00  0.00000E+00  9.000E+00
#pdf  -2  2 0.53497225E-03 0.80945550E-01 0.85547135E+02 0.18249156E+01 0.61611010E+00
#rwgt            1           4   1657.8494543181012         54217137    18337944           0
</event>
<event>
      6  10013  3.31628E+03  3.04394E+00 -1.00000E+00  2.94828E-01
      -1    -1     0     0     0   511  0.000000000E+00  0.000000000E+00  1.460031664E+02  1.460031664E+02  0.000000000E+00  0.00000E+00  9.000E+00
       1    -1     0     0   501     0  0.000000000E+00  0.000000000E+00 -1.585106275E+01  1.585106275E+01  0.000000000E+00  0.00000E+00  9.000E+00
      23     2     1     2     0     0 -1.898222140E+00  2.379559784E+00  1.147598998E+02  1.461639299E+02  9.046985265E+01  0.00000E+00  9.000E+00
      13     1     3     3     0     0  2.933702624E+01 -3.243433464E+01  5.413893300E+01  6.959656889E+01  1.056583668E-01  0.00000E+00  9.000E+00
     -13     1     3     3     0     0 -3.123524838E+01  3.481389442E+01  6.062096679E+01  7.656736096E+01  1.056583668E-01  0.00000E+00  9.000E+00
      21     1     1     2   501   511  1.898222140E+00 -2.379559784E+00  1.539220383E+01  1.569029926E+01  1.685873940E-07  0.00000E+00  9.000E+00
#pdf  -1  1 0.20059713E-01 0.24143284E-02 0.90469853E+02 0.37808335E+00 0.10895428E+01
#rwgt            1           5   507.30546959220845         54217137    18338306           0
</event>
<event>
      6  10013  3.31628E+03  2.58406E+01 -1.00000E+00  1.57645E-01
      21    -1     0     0   511   501  0.000000000E+00  0.000000000E+00  3.428608766E+01  3.428608766E+01  0.000000000E+00  0.00000E+00  9.000E+00
       4    -1     0     0   501     0  0.000000000E+00  0.000000000E+00 -8.241781493E+01  8.241781493E+01  0.000000000E+00  0.00000E+00  9.000E+00
      23     2     1     2     0     0  1.000761685E+01 -2.382405352E+01 -4.579907685E+01  9.075820585E+01  7.397133613E+01  0.00000E+00  9.000E+00
      13     1     3     3     0     0  2.499311468E+01 -3.696273087E+01 -4.430374508E+00  4.483903029E+01  1.056583668E-01  0.00000E+00  9.000E+00
     -13     1     3     3     0     0 -1.498549783E+01  1.313867736E+01 -4.136870234E+01  4.591917557E+01  1.056583668E-01  0.00000E+00  9.000E+00
       4     1     1     2   511     0 -1.000761685E+01  2.382405352E+01 -2.332650428E+00  2.594569673E+01  0.000000000E+00  0.00000E+00  9.000E+00
#pdf  -4  4 0.32649131E-02 0.99167325E-02 0.73971336E+02 0.64790259E+00 0.34228420E+00
#rwgt            1           2   284.71775506775055         54217137    18338449           0
</event>
<event>
      6  10013  3.31628E+03  2.57764E+00 -1.00000E+00  3.18250E-01
      21    -1     0     0   511   501  0.000000000E+00  0.000000000E+00  2.857029540E+00  2.857029540E+00  0.000000000E+00  0.00000E+00  9.000E+00
       1    -1     0     0   501     0  0.000000000E+00  0.000000000E+00 -7.651850911E+02  7.651850911E+02  0.000000000E+00  0.00000E+00  9.000E+00
      23     2     1     2     0     0  2.498102942E+00 -6.353997232E-01 -7.517637786E+02  7.571679161E+02  9.026533122E+01  0.00000E+00  9.000E+00
      13     1     3     3     0     0 -1.626273697E+01 -3.162590175E+01 -6.033338173E+02  6.043809896E+02  1.056583668E-01  0.00000E+00  9.000E+00
     -13     1     3     3     0     0  1.876083992E+01  3.099050203E+01 -1.484299613E+02  1.527869265E+02  1.056583668E-01  0.00000E+00  9.000E+00
       1     1     1     2   511     0 -2.498102942E+00  6.353997232E-01 -1.056428297E+01  1.087420460E+01  0.000000000E+00  0.00000E+00  9.000E+00
#pdf  -1  1 0.41553349E-03 0.11602437E+00 0.90265331E+02 0.20336031E+01 0.33870676E+00
#rwgt            1           5   1136.0980665055642         54217137    18338553           0
</event>
<event>
      6  10013  3.31628E+03  2.56447E+00 -1.00000E+00  3.19035E-01
       1    -1     0     0   501     0  0.000000000E+00  0.000000000E+00  2.168369295E+01  2.168369295E+01  0.000000000E+00  0.00000E+00  9.000E+00
      -1    -1     0     0     0   511  0.000000000E+00  0.000000000E+00 -1.024097570E+02  1.024097570E+02  0.000000000E+00  0.00000E+00  9.000E+00
      23     2     1     2     0     0 -3.708399662E-01  2.537519614E+00 -7.670742055E+01  1.193262680E+02  9.136822939E+01  0.00000E+00  9.000E+00
      13     1     3     3     0     0  2.047979426E+01 -1.476100500E+01  1.099423291E+01  2.753531483E+01  1.056583668E-01  0.00000E+00  9.000E+00
     -13     1     3     3     0     0 -2.085063423E+01  1.729852461E+01 -8.770165347E+01  9.179095318E+01  1.056583668E-01  0.00000E+00  9.000E+00
      21     1     1     2   501   511  3.708399662E-01 -2.537519614E+00 -4.018643453E+00  4.767181901E+00  8.429369702E-08  0.00000E+00  9.000E+00
#pdf   1 -1 0.32770823E-02 0.15073578E-01 0.91368229E+02 0.97869953E+00 0.44050983E+00
#rwgt            1           6   682.24946322436324         54217137    18338657           0
</event>
<event>
      6  10013  3.31628E+03  2.18353E+00 -1.00000E+00  3.45974E-01
      -2    -1     0     0     0   511  0.000000000E+00  0.000000000E+00  1.800877150E+00  1.800877150E+00  0.000000000E+00  0.00000E+00  9.000E+00
       2    -1     0     0   501     0  0.000000000E+00  0.000000000E+00 -1.205014319E+03  1.205014319E+03  0.000000000E+00  0.00000E+00  9.000E+00
      23     2     1     2     0     0  2.170614501E+00 -2.371188313E-01 -1.176933461E+03  1.180444660E+03  9.095304003E+01  0.00000E+00  9.000E+00
      13     1     3     3     0     0 -2.038523654E+01 -2.240741420E+01 -1.014974743E+03  1.015426703E+03  1.056583668E-01  0.00000E+00  9.000E+00
     -13     1     3     3     0     0  2.255585104E+01  2.217029537E+01 -1.619587185E+02  1.650179568E+02  1.056583668E-01  0.00000E+00  9.000E+00
      21     1     1     2   501   511 -2.170614501E+00  2.371188313E-01 -2.627998003E+01  2.637053551E+01  3.371747881E-07  0.00000E+00  9.000E+00
#pdf  -2  2 0.27001442E-03 0.18128454E+00 0.90953040E+02 0.23833407E+01 0.51599210E+00
#rwgt            1           4   1658.1206535195254         54217137    18338796           0
</event>
<event>
      6  10013  3.31628E+03  3.23717E+01 -1.00000E+00  1.50746E-01
      21    -1     0     0   511   501  0.000000000E+00  0.000000000E+00  3.611248606E+00  3.611248606E+00  0.000000000E+00  0.00000E+00  9.000E+00
       2    -1     0     0   501     0  0.000000000E+00  0.000000000E+00 -1.660848622E+03  1.660848622E+03  0.000000000E+00  0.00000E+00  9.000E+00
      23     2     1     2     0     0  2.540836942E+01 -2.005849742E+01 -1.572046040E+03  1.573325400E+03  5.455393630E+01  0.00000E+00  9.000E+00
      13     1     3     3     0     0 -1.074457542E+01 -2.391943301E+01 -7.891626964E+02  7.895982255E+02  1.056583668E-01  0.00000E+00  9.000E+00
     -13     1     3     3     0     0  3.615294484E+01  3.860935598E+00 -7.828833441E+02  7.837271743E+02  1.056583668E-01  0.00000E+00  9.000E+00
       2     1     1     2   511     0 -2.540836942E+01  2.005849742E+01 -8.519133327E+01  9.113447108E+01  0.000000000E+00  0.00000E+00  9.000E+00
#pdf  -2  2 0.84633646E-04 0.20807621E+00 0.54553936E+02 0.31674871E+01 0.49795689E+00
#rwgt            1           4   1974.4413495448482         54217137    18339086           0
</event>
<event>
      6  10013  3.31628E+03  1.04939E+01 -1.00000E+00  1.93311E-01
      21    -1     0     0   511   501  0.000000000E+00  0.000000000E+00  2.919127644E+02  2.919127644E+02  0.000000000E+00  0.00000E+00  9.000E+00
       3    -1     0     0   501     0  0.000000000E+00  0.000000000E+00 -9.322186978E+00  9.322186978E+00  0.000000000E+00  0.00000E+00  9.000E+00
      23     2     1     2     0     0  1.021305193E+01  2.411685995E+00  2.629421528E+02  2.789597802E+02  9.257354164E+01  0.00000E+00  9.000E+00
      13     1     3     3     0     0 -2.152429857E+01 -3.677409230E+01  1.131187821E+02  1.208780349E+02  1.056583668E-01  0.00000E+00  9.000E+00
     -13     1     3     3     0     0  3.173735050E+01  3.918577830E+01  1.498233707E+02  1.580817453E+02  1.056583668E-01  0.00000E+00  9.000E+00
       3     1     1     2   511     0 -1.021305193E+01 -2.411685995E+00  1.964842462E+01  2.227517114E+01  0.000000000E+00  0.00000E+00  9.000E+00
#pdf  -3  3 0.41419493E-01 0.12242843E-02 0.92573542E+02 0.18037904E+00 0.13008507E+01
#rwgt            1           3   286.68592825484171         54217137    18339120           0
</event>
<event>
      6  10013  3.31628E+03  7.03222E+00 -1.00000E+00  2.15201E-01
      21    -1     0     0   501   511  0.000000000E+00  0.000000000E+00  7.409386671E+01  7.409386671E+01  0.000000000E+00  0.00000E+00  9.000E+00
      -3    -1     0     0     0   501  0.000000000E+00  0.000000000E+00 -1.830767875E+02  1.830767875E+02  0.000000000E+00  0.00000E+00  9.000E+00
      23     2     1     2     0     0 -8.490987373E-01 -6.980768295E+00 -1.712534868E+02  1.945042719E+02  9.194945867E+01  0.00000E+00  9.000E+00
      13     1     3     3     0     0 -3.727736541E+01  1.847739567E+01 -1.181266396E+02  1.252394916E+02  1.056583668E-01  0.00000E+00  9.000E+00
     -13     1     3     3     0     0  3.642826667E+01 -2.545816397E+01 -5.312684719E+01  6.926478024E+01  1.056583668E-01  0.00000E+00  9.000E+00
      -3     1     1     2     0   511  8.490987373E-01  6.980768295E+00  6.227056595E+01  6.266638236E+01  0.000000000E+00  0.00000E+00  9.000E+00
#pdf   3 -3 0.17833142E-02 0.28053289E-01 0.91949459E+02 0.11114455E+01 0.25063236E+00
#rwgt            1           8   322.73977114693434         54217137    18339204           0
</event>
<event>
      6  10013  3.31628E+03  9.34534E+00 -1.00000E+00  1.99158E-01
       2    -1     0     0   501     0  0.000000000E+00  0.000000000E+00  4.168413778E+02  4.168413778E+02  0.000000000E+00  0.00000E+00  9.000E+00
      21    -1     0     0   511   501  0.000000000E+00  0.000000000E+00 -7.562240691E-01  7.562240691E-01  0.000000000E+00  0.00000E+00  9.000E+00
      23     2     1     2     0     0 -8.602687968E+00  3.650897157E+00  3.647495320E+02  3.654182827E+02  2.002410917E+01  0.00000E+00  9.000E+00
      13     1     3     3     0     0 -5.670577607E+00  8.722135536E+00  8.892703304E+01  8.953356615E+01  1.056583668E-01  0.00000E+00  9.000E+00
     -13     1     3     3     0     0 -2.932110360E+00 -5.071238380E+00  2.758224990E+02  2.758847166E+02  1.056583668E-01  0.00000E+00  9.000E+00
       2     1     1     2   511     0  8.602687968E+00 -3.650897157E+00  5.133562174E+01  5.217931918E+01  0.000000000E+00  0.00000E+00  9.000E+00
#pdf   2 -2 0.50896635E-01 0.46615531E-04 0.20024109E+02 0.62530877E+00 0.27699195E+01
#rwgt            1           7   2275.9073352692258         54217137    18339294           0
</event>
<event>
      6  10013  3.31628E+03  1.18153E+01 -1.00000E+00  1.87686E-01
       1    -1     0     0   501     0  0.000000000E+00  0.000000000E+00  4.532035380E+02  4.532035380E+02  0.000000000E+00  0.00000E+00  9.000E+00
      -1    -1     0     0     0   511  0.000000000E+00  0.000000000E+00 -1.277847636E+01  1.277847636E+01  0.000000000E+00  0.00000E+00  9.000E+00
      23     2     1     2     0     0 -9.872827370E-01  1.177396043E+01  4.441871772E+02  4.535822407E+02  9.107688948E+01  0.00000E+00  9.000E+00
      13     1     3     3     0     0  2.286687202E+00 -8.392897573E+00  4.264130200E+02  4.265017520E+02  1.056583668E-01  0.00000E+00  9.000E+00
     -13     1     3     3     0     0 -3.273969939E+00  2.016685800E+01  1.777415729E+01  2.708048877E+01  1.056583668E-01  0.00000E+00  9.000E+00
      21     1     1     2   501   511  9.872827370E-01 -1.177396043E+01 -3.762115634E+00  1.239977361E+01  4.597678369E-07  0.00000E+00  9.000E+00
#pdf   1 -1 0.68485303E-01 0.71669157E-03 0.91076889E+02 0.40977349E+00 0.16570950E+01
#rwgt            1           6   1188.9453460195946         54217137    18339349           0
</event>
<event>
      6  10013  3.31628E+03  5.86934E+00 -1.00000E+00  2.26888E-01
      -2    -1     0     0     0   511  0.000000000E+00  0.000000000E+00  9.607773525E-01  9.607773525E-01  0.000000000E+00  0.00000E+00  9.000E+00
       2    -1     0     0   501     0  0.000000000E+00  0.000000000E+00 -2.743758130E+03  2.743758130E+03  0.000000000E+00  0.00000E+00  9.000E+00
      23     2     1     2     0     0 -1.976529105E-02  5.869304762E+00 -2.673543785E+03  2.675217068E+03  9.442212717E+01  0.00000E+00  9.000E+00
      13     1     3     3     0     0  2.916467714E+01  1.970046809E+00 -2.856510291E+02  2.871427886E+02  1.056583668E-01  0.00000E+00  9.000E+00
     -13     1     3     3     0     0 -2.918444243E+01  3.899257953E+00 -2.387892756E+03  2.388074279E+03  1.056583668E-01  0.00000E+00  9.000E+00
      21     1     1     2   501   511  1.976529105E-02 -5.869304762E+00 -6.925356722E+01  6.950183956E+01  1.907348633E-06  0.00000E+00  9.000E+00
#pdf  -2  2 0.12846607E-03 0.41065054E+00 0.94422127E+02 0.31433783E+01 0.19428627E+00
#rwgt            1           4   2945.5564285786809         54217137    18339444           0
</event>
<event>
      6  10013  3.31628E+03  2.91811E+01 -1.00000E+00  1.53844E-01
       2    -1     0     0   501     0  0.000000000E+00  0.000000000E+00  3.882102581E+02  3.882102581E+02  0.000000000E+00  0.00000E+00  9.000E+00
      21    -1     0     0   511   501  0.000000000E+00  0.000000000E+00 -2.348407450E+01  2.348407450E+01  0.000000000E+00  0.00000E+00  9.000E+00
      23     2     1     2     0     0 -7.946289443E+00 -2.807830035E+01  3.700519803E+02  3.820312482E+02  9.032093908E+01  0.00000E+00  9.000E+00
      13     1     3     3     0     0 -1.284080624E+01 -3.778024936E+01  3.689576327E+02  3.711091207E+02  1.056583668E-01  0.00000E+00  9.000E+00
     -13     1     3     3     0     0  4.894516794E+00  9.701949007E+00  1.094347541E+00  1.092212751E+01  1.056583668E-01  0.00000E+00  9.000E+00
       2     1     1     2   511     0  7.946289443E+00  2.807830035E+01 -5.325796665E+00  2.966308441E+01  0.000000000E+00  0.00000E+00  9.000E+00
#pdf   2 -2 0.55050707E-01 0.87685398E-03 0.90320939E+02 0.63011136E+00 0.15233827E+01
#rwgt            1           7   1154.6308722490162         54217137    18339597           0
</event>
<event>
      6  10013  3.31628E+03  7.14485E+00 -1.00000E+00  2.14234E-01
      21    -1     0     0   511   501  0.000000000E+00  0.000000000E+00  1.179824619E+03  1.179824619E+03  0.000000000E+00  0.00000E+00  9.000E+00
       5    -1     0     0   501     0  0.000000000E+00  0.000000000E+00 -6.538033673E+00  6.538033673E+00  0.000000000E+00  0.00000E+00  9.000E+00
      23     2     1     2     0     0 -7.129455555E+00  4.687221462E-01  3.461759507E+02  3.592211589E+02  9.566087659E+01  0.00000E+00  9.000E+00
      13     1     3     3     0     0 -2.207555460E+00 -4.757211122E+01  1.746602229E+02  1.810364154E+02  1.056583668E-01  0.00000E+00  9.000E+00
     -13     1     3     3     0     0 -4.921900095E+00  4.804083336E+01  1.715157278E+02  1.781847435E+02  1.056583668E-01  0.00000E+00  9.000E+00
       5     1     1     2   511     0  7.129455555E+00 -4.687221462E-01  8.271106341E+02  8.271414933E+02  0.000000000E+00  0.00000E+00  9.000E+00
#pdf  -5  5 0.54110598E-01 0.10006903E-02 0.95660877E+02 0.43977593E-01 0.86416209E+00
#rwgt            1           1   81.566099843121293         54217137    18339634           0
</event>
<event>
      6  10013  3.31628E+03  1.54403E+01 -1.00000E+00  1.76161E-01
      -1    -1     0     0     0   511  0.000000000E+00  0.000000000E+00  2.615440032E+02  2.615440032E+02  0.000000000E+00  0.00000E+00  9.000E+00
       1    -1     0     0   501     0  0.000000000E+00  0.000000000E+00 -6.108631317E+01  6.108631317E+01  0.000000000E+00  0.00000E+00  9.000E+00
      23     2     1     2     0     0 -1.192118575E+01 -9.812614923E+00 -2.543381275E+01  9.621173694E+01  9.149545023E+01  0.00000E+00  9.000E+00
      13     1     3     3     0     0 -9.307974203E+00  1.631115099E+01 -5.414314326E+01  5.730779316E+01  1.056583668E-01  0.00000E+00  9.000E+00
     -13     1     3     3     0     0 -2.613211545E+00 -2.612376591E+01  2.870933051E+01  3.890394378E+01  1.056583668E-01  0.00000E+00  9.000E+00
      21     1     1     2   501   511  1.192118575E+01  9.812614923E+00  2.258915028E+02  2.264185794E+02  4.672030912E-06  0.00000E+00  9.000E+00
#pdf  -1  1 0.53685493E-02 0.92268901E-02 0.91495450E+02 0.72323587E+00 0.69261363E+00
#rwgt            1           5   749.97174144368580         54217137    18340193           0
</event>
<event>
      6  10013  3.31628E+03  2.07497E+00 -1.00000E+00  3.55569E-01
      -1    -1     0     0     0   501  0.000000000E+00  0.000000000E+00  7.124134928E-01  7.124134928E-01  0.000000000E+00  0.00000E+00  9.000E+00
       1    -1     0     0   511     0  0.000000000E+00  0.000000000E+00 -2.585217805E+03  2.585217805E+03  0.000000000E+00  0.00000E+00  9.000E+00
      23     2     1     2     0     0 -1.432057637E+00  1.501573981E+00 -2.428083390E+03  2.429494455E+03  8.276504723E+01  0.00000E+00  9.000E+00
      13     1     3     3     0     0 -8.749019604E+00 -1.403981485E+01 -2.319636865E+03  2.319695854E+03  1.056583668E-01  0.00000E+00  9.000E+00
     -13     1     3     3     0     0  7.316961966E+00  1.554138883E+01 -1.084465254E+02  1.097986008E+02  1.056583668E-01  0.00000E+00  9.000E+00
      21     1     1     2   511   501  1.432057637E+00 -1.501573981E+00 -1.564220017E+02  1.564357636E+02  1.907348633E-06  0.00000E+00  9.000E+00
#pdf  -1  1 0.10850937E-03 0.37354246E+00 0.82765047E+02 0.32396779E+01 0.81477837E-01
#rwgt            1           5   1812.0932032485439         54217137    18340293           0
</event>
<event>
      6  10013  3.31628E+03  3.06723E+00 -1.00000E+00  2.93841E-01
       2    -1     0     0   511     0  0.000000000E+00  0.000000000E+00  3.669782979E+02  3.669782979E+02  0.000000000E+00  0.00000E+00  9.000E+00
      -2    -1     0     0     0   501  0.000000000E+00  0.000000000E+00 -8.482602600E-01  8.482602600E-01  0.000000000E+00  0.00000E+00  9.000E+00
      23     2     1     2     0     0 -2.813971682E+00 -1.220432069E+00  1.944140161E+02  1.960831450E+02  2.534526046E+01  0.00000E+00  9.000E+00
      13     1     3     3     0     0  1.337600561E+00  7.174539657E+00  1.660989363E+02  1.662592283E+02  1.056583668E-01  0.00000E+00  9.000E+00
     -13     1     3     3     0     0 -4.151572243E+00 -8.394971726E+00  2.831507982E+01  2.982391677E+01  1.056583668E-01  0.00000E+00  9.000E+00
      21     1     1     2   511   501  2.813971682E+00  1.220432069E+00  1.717160215E+02  1.717434131E+02  3.303624740E-06  0.00000E+00  9.000E+00
#pdf   2 -2 0.29820670E-01 0.12746455E-03 0.25345260E+02 0.62855529E+00 0.22148394E+01
#rwgt            1           7   1502.3550460758865         54217137    18340503           0
</event>
<event>
      6  10013  3.31628E+03  1.04413E+01 -1.00000E+00  1.93557E-01
      -4    -1     0     0     0   501  0.000000000E+00  0.000000000E+00  7.027664774E+01  7.027664774E+01  0.000000000E+00  0.00000E+00  9.000E+00
      21    -1     0     0   501   511  0.000000000E+00  0.000000000E+00 -4.446070692E+00  4.446070692E+00  0.000000000E+00  0.00000E+00  9.000E+00
      23     2     1     2     0     0  1.687714984E+00  1.030399001E+01  3.851198433E+01  4.547675974E+01  2.181609835E+01  0.00000E+00  9.000E+00
      13     1     3     3     0     0  5.882292562E+00  1.597422565E+01  2.912159952E+01  3.373212079E+01  1.056583668E-01  0.00000E+00  9.000E+00
     -13     1     3     3     0     0 -4.194577577E+00 -5.670235645E+00  9.390384812E+00  1.174463894E+01  1.056583668E-01  0.00000E+00  9.000E+00
      -4     1     1     2     0   511 -1.687714984E+00 -1.030399001E+01  2.731859271E+01  2.924595869E+01  0.000000000E+00  0.00000E+00  9.000E+00
#pdf  -4  4 0.58276132E-02 0.48325543E-03 0.21816098E+02 0.37284748E+00 0.10590655E+01
#rwgt            1           2   386.30085222164593         54217137    18340635           0
</event>
<event>
      6  10013  3.31628E+03  1.01843E+01 -1.00000E+00  1.94787E-01
      21    -1     0     0   511   501  0.000000000E+00  0.000000000E+00  1.210864253E+00  1.210864253E+00  0.000000000E+00  0.00000E+00  9.000E+00
       1    -1     0     0   501     0  0.000000000E+00  0.000000000E+00 -1.161438240E+03  1.161438240E+03  0.000000000E+00  0.00000E+00  9.000E+00
      23     2     1     2     0     0  6.185637444E+00  8.090612039E+00 -1.137329477E+03  1.137588500E+03  2.203488649E+01  0.00000E+00  9.000E+00
      13     1     3     3     0     0  7.899731685E+00 -5.423002648E+00 -6.428610028E+02  6.429324185E+02  1.056583668E-01  0.00000E+00  9.000E+00
     -13     1     3     3     0     0 -1.714094241E+00  1.351361469E+01 -4.944684744E+02  4.946560818E+02  1.056583668E-01  0.00000E+00  9.000E+00
       1     1     1     2   511     0 -6.185637444E+00 -8.090612039E+00 -2.289789896E+01  2.506060436E+01  0.000000000E+00  0.00000E+00  9.000E+00
#pdf  -1  1 0.18086472E-04 0.15884775E+00 0.22034886E+02 0.37931370E+01 0.31292347E+00
#rwgt            1           5   354.81627674601344         54217137    18340690           0
</event>
<event>
      6  10013  3.31628E+03  1.46418E+01 -1.00000E+00  1.78330E-01
      21    -1     0     0   511   501  0.000000000E+00  0.000000000E+00  4.130124235E-01  4.130124235E-01  0.000000000E+00  0.00000E+00  9.000E+00
       2    -1     0     0   501     0  0.000000000E+00  0.000000000E+00 -1.601991686E+03  1.601991686E+03  0.000000000E+00  0.00000E+00  9.000E+00
      23     2     1     2     0     0 -6.245318214E+00 -1.324309147E+01 -1.390618025E+03  1.390936548E+03  2.591534563E+01  0.00000E+00  9.000E+00
      13     1     3     3     0     0 -1.460350557E+01 -5.792551040E+00 -1.084513512E+03  1.084627303E+03  1.056583668E-01  0.00000E+00  9.000E+00
     -13     1     3     3     0     0  8.358187359E+00 -7.450540430E+00 -3.061045131E+02  3.063092456E+02  1.056583668E-01  0.00000E+00  9.000E+00
       2     1     1     2   511     0  6.245318214E+00  1.324309147E+01 -2.109606485E+02  2.114681506E+02  0.000000000E+00  0.00000E+00  9.000E+00
#pdf  -2  2 0.21332421E-04 0.18628898E+00 0.25915346E+02 0.38458058E+01 0.55468085E+00
#rwgt            1           4   2873.0895440892555         54217137    18340795           0
</event>
<event>
      6  10013  3.31628E+03  5.63384E+00 -1.00000E+00  2.29723E-01
       2    -1     0     0   511     0  0.000000000E+00  0.000000000E+00  8.859005746E+02  8.859005746E+02  0.000000000E+00  0.00000E+00  9.000E+00
      -2    -1     0     0     0   501  0.000000000E+00  0.000000000E+00 -3.211306673E+00  3.211306673E+00  0.000000000E+00  0.00000E+00  9.000E+00
      23     2     1     2     0     0 -5.629598372E+00 -2.185587149E-01  7.547768017E+01  8.188063340E+01  3.123808213E+01  0.00000E+00  9.000E+00
      13     1     3     3     0     0 -3.808232649E+00 -3.868033187E+00  7.724403918E+01  7.743459866E+01  1.056583668E-01  0.00000E+00  9.000E+00
     -13     1     3     3     0     0 -1.821365723E+00  3.649474472E+00 -1.766359010E+00  4.446034735E+00  1.056583668E-01  0.00000E+00  9.000E+00
      21     1     1     2   511   501  5.629598372E+00  2.185587149E-01  8.072115878E+02  8.072312479E+02  1.525878906E-05  0.00000E+00  9.000E+00
#pdf   2 -2 0.11912302E-01 0.48471485E-03 0.31238082E+02 0.68394782E+00 0.15213444E+01
#rwgt            1           7   668.26810837503956         54217137    18340883           0
</event>
<event>
      6  10013  3.31628E+03  1.69698E+01 -1.00000E+00  1.72435E-01
      21    -1     0     0   511   501  0.000000000E+00  0.000000000E+00  1.328825431E+03  1.328825431E+03  0.000000000E+00  0.00000E+00  9.000E+00
       2    -1     0     0   501     0  0.000000000E+00  0.000000000E+00 -5.532714511E+00  5.532714511E+00  0.000000000E+00  0.00000E+00  9.000E+00
      23     2     1     2     0     0 -1.472224486E+01 -8.439819802E+00  3.461889026E+01  4.557259102E+01  2.429852748E+01  0.00000E+00  9.000E+00
      13     1     3     3     0     0 -3.515638591E+00 -1.511873246E+00  3.188798819E+01  3.211698040E+01  1.056583668E-01  0.00000E+00  9.000E+00
     -13     1     3     3     0     0 -1.120660627E+01 -6.927946557E+00  2.730902073E+00  1.345561063E+01  1.056583668E-01  0.00000E+00  9.000E+00
       2     1     1     2   511     0  1.472224486E+01  8.439819802E+00  1.288673826E+03  1.288785554E+03  0.000000000E+00  0.00000E+00  9.000E+00
#pdf  -2  2 0.50573183E-02 0.69080094E-03 0.24298527E+02 0.61687169E+00 0.13205074E+01
#rwgt            1           4   732.96820800834041         54217137    18340924           0
</event>
<event>
      6  10013  3.31628E+03  1.56327E+01 -1.00000E+00  1.75663E-01
      21    -1     0     0   511   501  0.000000000E+00  0.000000000E+00  5.140300989E+00  5.140300989E+00  0.000000000E+00  0.00000E+00  9.000E+00
       1    -1     0     0   501     0  0.000000000E+00  0.000000000E+00 -8.260942930E+02  8.260942930E+02  0.000000000E+00  0.00000E+00  9.000E+00
      23     2     1     2     0     0 -4.609052336E+00 -1.493781319E+01 -7.984372741E+02  8.038232056E+02  9.157119433E+01  0.00000E+00  9.000E+00
      13     1     3     3     0     0 -4.527449945E+01 -2.333898969E+01 -4.781450864E+02  4.808505210E+02  1.056583668E-01  0.00000E+00  9.000E+00
     -13     1     3     3     0     0  4.066544711E+01  8.401176499E+00 -3.202921877E+02  3.229726846E+02  1.056583668E-01  0.00000E+00  9.000E+00
       1     1     1     2   511     0  4.609052336E+00  1.493781319E+01 -2.251671800E+01  2.741138844E+01  0.000000000E+00  0.00000E+00  9.000E+00
#pdf  -1  1 0.40839403E-03 0.12149312E+00 0.91571194E+02 0.20524741E+01 0.33091349E+00
#rwgt            1           5   914.74819175505081         54217137    18340963           0
</event>
<event>
      6  10013  3.31628E+03  3.65675E+00 -1.00000E+00  2.72886E-01
      21    -1     0     0   501   511  0.000000000E+00  0.000000000E+00  2.858002980E+00  2.858002980E+00  0.000000000E+00  0.00000E+00  9.000E+00
      -2    -1     0     0     0   501  0.000000000E+00  0.000000000E+00 -9.279482249E+01  9.279482249E+01  0.000000000E+00  0.00000E+00  9.000E+00
      23     2     1     2     0     0  2.469403667E+00 -2.697011274E+00 -8.941509608E+01  9.195904426E+01  2.116682759E+01  0.00000E+00  9.000E+00
      13     1     3     3     0     0 -1.332768990E+00 -2.958842270E+00 -8.773093178E+01  8.779099370E+01  1.056583668E-01  0.00000E+00  9.000E+00
     -13     1     3     3     0     0  3.802172657E+00  2.618309960E-01 -1.684164301E+00  4.168050560E+00  1.056583668E-01  0.00000E+00  9.000E+00
      -2     1     1     2     0   511 -2.469403667E+00  2.697011274E+00 -5.217234312E-01  3.693781209E+00  0.000000000E+00  0.00000E+00  9.000E+00
#pdf   2 -2 0.19283189E-03 0.13748204E-01 0.21166828E+02 0.18630854E+01 0.39296047E+00
#rwgt            1           7   679.36183406791940         54217137    18341045           0
</event>
<event>
      6  10013  3.31628E+03  1.34166E+01 -1.00000E+00  1.82023E-01
      21    -1     0     0   501   511  0.000000000E+00  0.000000000E+00  2.108177167E+01  2.108177167E+01  0.000000000E+00  0.00000E+00  9.000E+00
      -5    -1     0     0     0   501  0.000000000E+00  0.000000000E+00 -1.402612873E+02  1.402612873E+02  0.000000000E+00  0.00000E+00  9.000E+00
      23     2     1     2     0     0  9.785558442E+00 -9.178726618E+00 -8.532260273E+01  1.249247020E+02  9.025645932E+01  0.00000E+00  9.000E+00
      13     1     3     3     0     0  4.953436101E+01  9.557365407E-01 -5.421632399E+01  7.344376967E+01  1.056583668E-01  0.00000E+00  9.000E+00
     -13     1     3     3     0     0 -3.974880257E+01 -1.013446316E+01 -3.110627874E+01  5.148093230E+01  1.056583668E-01  0.00000E+00  9.000E+00
      -5     1     1     2     0   511 -9.785558442E+00  9.178726618E+00 -3.385691294E+01  3.641835705E+01  0.000000000E+00  0.00000E+00  9.000E+00
#pdf   5 -5 0.30132060E-02 0.15997092E-01 0.90256459E+02 0.47543814E+00 0.15273022E+00
#rwgt            1          10   100.62066944299566         54217137    18341147           0
</event>
<event>
      6  10013  3.31628E+03  1.72473E+00 -1.00000E+00  3.95753E-01
       2    -1     0     0   501     0  0.000000000E+00  0.000000000E+00  2.654024443E+03  2.654024443E+03  0.000000000E+00  0.00000E+00  9.000E+00
      -2    -1     0     0     0   511  0.000000000E+00  0.000000000E+00 -8.240885476E-01  8.240885476E-01  0.000000000E+00  0.00000E+00  9.000E+00
      23     2     1     2     0     0 -1.482009992E+00  8.822442762E-01  2.636336907E+03  2.637897114E+03  9.069685941E+01  0.00000E+00  9.000E+00
      13     1     3     3     0     0  1.202720208E+01  3.858725433E+01  1.931713867E+03  1.932136668E+03  1.056583668E-01  0.00000E+00  9.000E+00
     -13     1     3     3     0     0 -1.350921207E+01 -3.770501006E+01  7.046230406E+02  7.057604459E+02  1.056583668E-01  0.00000E+00  9.000E+00
      21     1     1     2   501   511  1.482009992E+00 -8.822442762E-01  1.686344725E+01  1.695141769E+01  2.384185791E-07  0.00000E+00  9.000E+00
#pdf   2 -2 0.40563697E+00 0.11999420E-03 0.90696859E+02 0.20129752E+00 0.31910635E+01
#rwgt            1           7   3731.7868110888799         54217137    18341528           0
</event>
<event>
      6  10013  3.31628E+03  3.77038E+00 -1.00000E+00  2.69557E-01
       3    -1     0     0   501     0  0.000000000E+00  0.000000000E+00  2.395467028E+01  2.395467028E+01  0.000000000E+00  0.00000E+00  9.000E+00
      -3    -1     0     0     0   511  0.000000000E+00  0.000000000E+00 -1.249789367E+02  1.249789367E+02  0.000000000E+00  0.00000E+00  9.000E+00
      23     2     1     2     0     0 -2.515551493E-01 -3.761982020E+00 -9.458383515E+01  1.414707025E+02  1.051363020E+02  0.00000E+00  9.000E+00
      13     1     3     3     0     0  1.672064301E+01 -3.736667897E+01 -9.540193858E+01  1.038142074E+02  1.056583668E-01  0.00000E+00  9.000E+00
     -13     1     3     3     0     0 -1.697219816E+01  3.360469695E+01  8.181034325E-01  3.765649512E+01  1.056583668E-01  0.00000E+00  9.000E+00
      21     1     1     2   501   511  2.515551493E-01  3.761982020E+00 -6.440431308E+00  7.462904538E+00  1.192092896E-07  0.00000E+00  9.000E+00
#pdf   3 -3 0.36043651E-02 0.18146376E-01 0.10513630E+03 0.82873287E+00 0.34410969E+00
#rwgt            1           8   224.42877628576969         54217137    18341757           0
</event>
<event>
      6  10013  3.31628E+03  4.17586E+00 -1.00000E+00  2.59039E-01
      -2    -1     0     0     0   511  0.000000000E+00  0.000000000E+00  5.030766109E+00  5.030766109E+00  0.000000000E+00  0.00000E+00  9.000E+00
       2    -1     0     0   501     0  0.000000000E+00  0.000000000E+00 -1.311419283E+03  1.311419283E+03  0.000000000E+00  0.00000E+00  9.000E+00
      23     2     1     2     0     0  3.166971846E+00 -2.721774236E+00 -1.308537105E+03  1.311753860E+03  9.171366412E+01  0.00000E+00  9.000E+00
      13     1     3     3     0     0  1.021190173E+01 -1.508629946E+01 -5.134454522E+01  5.448075675E+01  1.056583668E-01  0.00000E+00  9.000E+00
     -13     1     3     3     0     0 -7.044929889E+00  1.236452523E+01 -1.257192559E+03  1.257273103E+03  1.056583668E-01  0.00000E+00  9.000E+00
      21     1     1     2   501   511 -3.166971846E+00  2.721774236E+00  2.148587817E+00  4.696189442E+00  4.490172617E-07  0.00000E+00  9.000E+00
#pdf  -2  2 0.24718660E-03 0.20135224E+00 0.91713664E+02 0.24660700E+01 0.48862114E+00
#rwgt            1           4   1298.0056305894375         54217137    18341885           0
</event>
<event>
      6  10013  3.31628E+03  7.80987E+00 -1.00000E+00  2.08979E-01
      -1    -1     0     0     0   501  0.000000000E+00  0.000000000E+00  2.391175184E+00  2.391175184E+00  0.000000000E+00  0.00000E+00  9.000E+00
       1    -1     0     0   511     0  0.000000000E+00  0.000000000E+00 -1.043753047E+03  1.043753047E+03  0.000000000E+00  0.00000E+00  9.000E+00
      23     2     1     2     0     0 -7.053893254E+00  3.352117596E+00 -9.562922656E+02  9.607168729E+02  9.176610783E+01  0.00000E+00  9.000E+00
      13     1     3     3     0     0 -2.954984982E+01  2.670340295E+01 -8.052069215E+02  8.061913315E+02  1.056583668E-01  0.00000E+00  9.000E+00
     -13     1     3     3     0     0  2.249595656E+01 -2.335128536E+01 -1.510853440E+02  1.545255414E+02  1.056583668E-01  0.00000E+00  9.000E+00
      21     1     1     2   511   501  7.053893254E+00 -3.352117596E+00 -8.506960666E+01  8.542734971E+01  9.536743164E-07  0.00000E+00  9.000E+00
#pdf  -1  1 0.33912846E-03 0.14693108E+00 0.91766108E+02 0.22000639E+01 0.29672780E+00
#rwgt            1           5   1205.8410924304628         54217137    18342089           0
</event>
<event>
      6  10013  3.31628E+03  6.95623E+00 -1.00000E+00  2.15868E-01
       2    -1     0     0   501     0  0.000000000E+00  0.000000000E+00  1.257172994E+02  1.257172994E+02  0.000000000E+00  0.00000E+00  9.000E+00
      -2    -1     0     0     0   511  0.000000000E+00  0.000000000E+00 -2.337889432E+00  2.337889432E+00  0.000000000E+00  0.00000E+00  9.000E+00
      23     2     1     2     0     0  3.981471301E+00 -5.704126926E+00  1.156871660E+02  1.176840850E+02  2.043610298E+01  0.00000E+00  9.000E+00
      13     1     3     3     0     0 -2.501326392E+00  5.427796190E+00  1.455277258E+01  1.573251279E+01  1.056583668E-01  0.00000E+00  9.000E+00
     -13     1     3     3     0     0  6.482797692E+00 -1.113192312E+01  1.011343934E+02  1.019515722E+02  1.056583668E-01  0.00000E+00  9.000E+00
      21     1     1     2   501   511 -3.981471301E+00  5.704126926E+00  7.692243977E+00  1.037110385E+01  2.230201594E-07  0.00000E+00  9.000E+00
#pdf   2 -2 0.16994101E-01 0.14541569E-03 0.20436103E+02 0.63700547E+00 0.19826573E+01
#rwgt            1           7   1264.5640121849042         54217137    18342190           0
</event>
<event>
      6  10013  3.31628E+03  3.95114E+00 -1.00000E+00  2.64625E-01
       2    -1     0     0   501     0  0.000000000E+00  0.000000000E+00  7.006072322E+01  7.006072322E+01  0.000000000E+00  0.00000E+00  9.000E+00
      -2    -1     0     0     0   511  0.000000000E+00  0.000000000E+00 -3.618784030E+01  3.618784030E+01  0.000000000E+00  0.00000E+00  9.000E+00
      23     2     1     2     0     0 -3.706928407E+00 -1.367557877E+00  3.832816791E+01  1.002936414E+02  9.259673063E+01  0.00000E+00  9.000E+00
      13     1     3     3     0     0  3.699185294E+01 -2.280725442E+01  5.552999171E+00  4.381112874E+01  1.056583668E-01  0.00000E+00  9.000E+00
     -13     1     3     3     0     0 -4.069878134E+01  2.143969654E+01  3.277516874E+01  5.648251269E+01  1.056583668E-01  0.00000E+00  9.000E+00
      21     1     1     2   501   511  3.706928407E+00  1.367557877E+00 -4.455284989E+00  5.954922090E+00  1.192092896E-07  0.00000E+00  9.000E+00
#pdf   2 -2 0.10653522E-01 0.47622414E-02 0.92596731E+02 0.75373736E+00 0.74983365E+00
#rwgt            1           7   509.93667969010573         54217137    18342284           0
</event>
<event>
      6  10013  3.31628E+03  9.79672E+00 -1.00000E+00  1.96735E-01
       1    -1     0     0   501     0  0.000000000E+00  0.000000000E+00  7.452135054E+00  7.452135054E+00  0.000000000E+00  0.00000E+00  9.000E+00
      21    -1     0     0   511   501  0.000000000E+00  0.000000000E+00 -3.049203942E+02  3.049203942E+02  0.000000000E+00  0.00000E+00  9.000E+00
      23     2     1     2     0     0 -1.649833853E+00  9.656796934E+00 -2.610798371E+02  2.746884088E+02  8.482372832E+01  0.00000E+00  9.000E+00
      13     1     3     3     0     0  9.785200216E+00 -6.474416917E+00 -2.530899003E+02  2.533617513E+02  1.056583668E-01  0.00000E+00  9.000E+00
     -13     1     3     3     0     0 -1.143503407E+01  1.613121385E+01 -7.989936780E+00  2.132665745E+01  1.056583668E-01  0.00000E+00  9.000E+00
       1     1     1     2   511     0  1.649833853E+00 -9.656796934E+00 -3.638842204E+01  3.768412049E+01  0.000000000E+00  0.00000E+00  9.000E+00
#pdf   1 -1 0.10399005E-02 0.40940790E-01 0.84823728E+02 0.14628939E+01 0.24606832E+00
#rwgt            1           6   448.82689552398523         54217137    18342450           0
</event>
<event>
      6  10013  3.31628E+03  2.71156E+00 -1.00000E+00  3.10705E-01
      -4    -1     0     0     0   501  0.000000000E+00  0.000000000E+00  1.706476752E+00  1.706476752E+00  0.000000000E+00  0.00000E+00  9.000E+00
       4    -1     0     0   511     0  0.000000000E+00  0.000000000E+00 -1.949238133E+02  1.949238133E+02  0.000000000E+00  0.00000E+00  9.000E+00
      23     2     1     2     0     0  9.179677988E-01 -2.551444023E+00 -7.931365666E+01  8.269433952E+01  2.324532479E+01  0.00000E+00  9.000E+00
      13     1     3     3     0     0 -7.862808098E+00 -9.173420603E+00 -3.463968824E+01  3.668643567E+01  1.056583668E-01  0.00000E+00  9.000E+00
     -13     1     3     3     0     0  8.780775897E+00  6.621976581E+00 -4.467396841E+01  4.600790385E+01  1.056583668E-01  0.00000E+00  9.000E+00
      21     1     1     2   511   501 -9.179677988E-01  2.551444023E+00 -1.139036799E+02  1.139359505E+02  2.336015456E-06  0.00000E+00  9.000E+00
#pdf  -4  4 0.25830110E-03 0.12378222E-01 0.23245325E+02 0.13507032E+01 0.24511718E+00
#rwgt            1           2   269.74802070992968         54217137    18342491           0
</event>
<event>
      6  10013 -3.31628E+03  9.21539E+00 -1.00000E+00  1.99890E-01
      21    -1     0     0   511   501  0.000000000E+00  0.000000000E+00  4.365629256E+00  4.365629256E+00  0.000000000E+00  0.00000E+00  9.000E+00
       1    -1     0     0   501     0  0.000000000E+00  0.000000000E+00 -1.081530967E+02  1.081530967E+02  0.000000000E+00  0.00000E+00  9.000E+00
      23     2     1     2     0     0 -7.890205994E+00  4.761090577E+00 -9.845267779E+01  1.018705658E+02  2.448997916E+01  0.00000E+00  9.000E+00
      13     1     3     3     0     0 -6.221034838E+00 -9.511918626E+00 -5.279821111E+01  5.400777843E+01  1.056583668E-01  0.00000E+00  9.000E+00
     -13     1     3     3     0     0 -1.669171156E+00  1.427300920E+01 -4.565446668E+01  4.786278738E+01  1.056583668E-01  0.00000E+00  9.000E+00
       1     1     1     2   511     0  7.890205994E+00 -4.761090577E+00 -5.334789665E+00  1.064816016E+01  0.000000000E+00  0.00000E+00  9.000E+00
#pdf  -1  1 0.24606979E-03 0.14422210E-01 0.24489979E+02 0.17846746E+01 0.55860435E+00
#rwgt            1           5  -440.18300364128731         54217137    18342600           0
</event>
<event>
      6  10013  3.31628E+03  8.59758E+01 -1.00000E+00  1.26829E-01
      -2    -1     0     0     0   511  0.000000000E+00  0.000000000E+00  6.902044457E+02  6.902044457E+02  0.000000000E+00  0.00000E+00  9.000E+00
       2    -1     0     0   501     0  0.000000000E+00  0.000000000E+00 -2.185336260E+01  2.185336260E+01  0.000000000E+00  0.00000E+00  9.000E+00
      23     2     1     2     0     0  7.771001716E+01  3.678312464E+01  2.150517557E+02  2.506771355E+02  9.591623222E+01  0.00000E+00  9.000E+00
      13     1     3     3     0     0  5.279795123E+01  5.485063218E+01  7.351458502E+01  1.058329858E+02  1.056583668E-01  0.00000E+00  9.000E+00
     -13     1     3     3     0     0  2.491206593E+01 -1.806750754E+01  1.415371707E+02  1.448441497E+02  1.056583668E-01  0.00000E+00  9.000E+00
      21     1     1     2   501   511 -7.771001716E+01 -3.678312464E+01  4.532993274E+02  4.613806728E+02  7.629394531E-06  0.00000E+00  9.000E+00
#pdf  -2  2 0.26676914E-01 0.20406190E-02 0.95916232E+02 0.29416998E+00 0.12014259E+01
#rwgt            1           4   459.55680521289037         54217137    18342725           0
</event>
<event>
      6  10013  3.31628E+03  4.63645E+00 -1.00000E+00  2.49126E-01
       1    -1     0     0   511     0  0.000000000E+00  0.000000000E+00  8.034707282E+01  8.034707282E+01  0.000000000E+00  0.00000E+00  9.000E+00
      -1    -1     0     0     0   501  0.000000000E+00  0.000000000E+00 -3.219358454E+01  3.219358454E+01  0.000000000E+00  0.00000E+00  9.000E+00
      23     2     1     2     0     0  3.483228674E+00 -3.060031941E+00  3.004443960E+01  9.384749493E+01  8.878731483E+01  0.00000E+00  9.000E+00
      13     1     3     3     0     0 -6.582633625E+00  3.825942545E+00  6.053297767E+01  6.101001107E+01  1.056583668E-01  0.00000E+00  9.000E+00
     -13     1     3     3     0     0  1.006586230E+01 -6.885974487E+00 -3.048853807E+01  3.283748385E+01  1.056583668E-01  0.00000E+00  9.000E+00
      21     1     1     2   511   501 -3.483228674E+00  3.060031941E+00  1.810904868E+01  1.869316243E+01  2.384185791E-07  0.00000E+00  9.000E+00
#pdf   1 -1 0.95171814E-02 0.49012493E-02 0.88787315E+02 0.68461495E+00 0.75097434E+00
#rwgt            1           6   1204.5353155169721         54217137    18342760           0
</event>
<event>
      6  10013  3.31628E+03  3.36155E+01 -1.00000E+00  1.49651E-01
       3    -1     0     0   501     0  0.000000000E+00  0.000000000E+00  1.469013480E+02  1.469013480E+02  0.000000000E+00  0.00000E+00  9.000E+00
      21    -1     0     0   511   501  0.000000000E+00  0.000000000E+00 -3.591636709E+01  3.591636709E+01  0.000000000E+00  0.00000E+00  9.000E+00
      23     2     1     2     0     0 -2.333573342E+01 -2.419596271E+01  1.127593352E+02  1.491554305E+02  9.166609906E+01  0.00000E+00  9.000E+00
      13     1     3     3     0     0 -4.202331586E+01 -5.010505626E+01  8.107920863E+01  1.041648932E+02  1.056583668E-01  0.00000E+00  9.000E+00
     -13     1     3     3     0     0  1.868758244E+01  2.590909355E+01  3.168012658E+01  4.499053734E+01  1.056583668E-01  0.00000E+00  9.000E+00
       3     1     1     2   511     0  2.333573342E+01  2.419596271E+01 -1.774354334E+00  3.366228452E+01  0.000000000E+00  0.00000E+00  9.000E+00
#pdf   3 -3 0.18915507E-01 0.26285292E-02 0.91666099E+02 0.33250426E+00 0.93976703E+00
#rwgt            1           8   489.72482299522943         54217137    18342833           0
</event>
<event>
      6  10013  3.31628E+03  6.68955E+00 -1.00000E+00  2.18303E-01
       2    -1     0     0   501     0  0.000000000E+00  0.000000000E+00  2.458217305E+01  2.458217305E+01  0.000000000E+00  0.00000E+00  9.000E+00
      -2    -1     0     0     0   511  0.000000000E+00  0.000000000E+00 -3.001074853E+01  3.001074853E+01  0.000000000E+00  0.00000E+00  9.000E+00
      23     2     1     2     0     0 -2.289663277E+00 -6.285505530E+00 -2.117163722E+00  4.712863424E+01  4.660338663E+01  0.00000E+00  9.000E+00
      13     1     3     3     0     0  8.436969277E+00 -4.170695014E+00 -2.228311634E+01  2.418936925E+01  1.056583668E-01  0.00000E+00  9.000E+00
     -13     1     3     3     0     0 -1.072663255E+01 -2.114810515E+00  2.016595262E+01  2.293926499E+01  1.056583668E-01  0.00000E+00  9.000E+00
      21     1     1     2   501   511  2.289663277E+00  6.285505530E+00 -3.311411762E+00  7.464287343E+00  1.115100797E-07  0.00000E+00  9.000E+00
#pdf   2 -2 0.34272922E-02 0.37497051E-02 0.46603387E+02 0.93198701E+00 0.76676770E+00
#rwgt            1           7   703.91605022884346         54217137    18342860           0
</event>
<event>
      6  10013 -3.31628E+03  1.74216E+01 -1.00000E+00  1.71427E-01
      -4    -1     0     0     0   501  0.000000000E+00  0.000000000E+00  2.711732785E+01  2.711732785E+01  0.000000000E+00  0.00000E+00  9.000E+00
      21    -1     0     0   501   511  0.000000000E+00  0.000000000E+00 -7.434816600E+01  7.434816600E+01  0.000000000E+00  0.00000E+00  9.000E+00
      23     2     1     2     0     0  1.571297412E+01  7.524375415E+00  1.903818195E+01  3.294471741E+01  2.047897097E+01  0.00000E+00  9.000E+00
      13     1     3     3     0     0 -3.237019705E+00  6.202831992E+00  9.179791561E+00  1.154266685E+01  1.056583668E-01  0.00000E+00  9.000E+00
     -13     1     3     3     0     0  1.894999383E+01  1.321543423E+00  9.858390387E+00  2.140205055E+01  1.056583668E-01  0.00000E+00  9.000E+00
      -4     1     1     2     0   511 -1.571297412E+01 -7.524375415E+00 -6.626902009E+01  6.852077645E+01  0.000000000E+00  0.00000E+00  9.000E+00
#pdf  -4  4 0.30456890E-02 0.81478683E-03 0.20478971E+02 0.50085009E+00 0.85548707E+00
#rwgt            1           2  -1188.0245156326785         54217137    18342923           0
</event>
<event>
      6  10013  3.31628E+03  2.78669E+00 -1.00000E+00  3.06790E-01
      -3    -1     0     0     0   501  0.000000000E+00  0.000000000E+00  7.986193882E+01  7.986193882E+01  0.000000000E+00  0.00000E+00  9.000E+00
      21    -1     0     0   501   511  0.000000000E+00  0.000000000E+00 -3.617845539E+01  3.617845539E+01  0.000000000E+00  0.00000E+00  9.000E+00
      23     2     1     2     0     0  1.899192562E+00 -2.039289285E+00  5.377345404E+01  1.055726753E+02  9.080880887E+01  0.00000E+00  9.000E+00
      13     1     3     3     0     0  3.953681642E+01 -8.765978959E+00  1.133949881E+00  4.051295158E+01  1.056583668E-01  0.00000E+00  9.000E+00
     -13     1     3     3     0     0 -3.763762386E+01  6.726689674E+00  5.263950415E+01  6.505972368E+01  1.056583668E-01  0.00000E+00  9.000E+00
      -3     1     1     2     0   511 -1.899192562E+00  2.039289285E+00 -1.008997061E+01  1.046771895E+01  0.000000000E+00  0.00000E+00  9.000E+00
#pdf  -3  3 0.12251627E-01 0.39826806E-02 0.90808809E+02 0.43555731E+00 0.77783031E+00
#rwgt            1           3   510.75030944329495         54217137    18342967           0
</event>
<event>
      6  10013  3.31628E+03  2.73665E+01 -1.00000E+00  1.55828E-01
       1    -1     0     0   511     0  0.000000000E+00  0.000000000E+00  3.044736649E+01  3.044736649E+01  0.000000000E+00  0.00000E+00  9.000E+00
      -1    -1     0     0     0   501  0.000000000E+00  0.000000000E+00 -1.256035132E+02  1.256035132E+02  0.000000000E+00  0.00000E+00  9.000E+00
      23     2     1     2     0     0  2.596210505E+01  8.654142825E+00 -7.741247576E+01  1.234355007E+02  9.216673124E+01  0.00000E+00  9.000E+00
      13     1     3     3     0     0 -7.518853298E+00  1.262371851E+01 -8.711981364E+01  8.835023778E+01  1.056583668E-01  0.00000E+00  9.000E+00
     -13     1     3     3     0     0  3.348095835E+01 -3.969575681E+00  9.707337876E+00  3.508526294E+01  1.056583668E-01  0.00000E+00  9.000E+00
      21     1     1     2   511   501 -2.596210505E+01 -8.654142825E+00 -1.774367094E+01  3.261537897E+01  5.840038640E-07  0.00000E+00  9.000E+00
#pdf   1 -1 0.33937878E-02 0.14810748E-01 0.92166731E+02 0.96766078E+00 0.44474265E+00
#rwgt            1           6   413.97871567931719         54217137    18343127           0
</event>
<event>
      6  10013  3.31628E+03  5.93427E+00 -1.00000E+00  2.26138E-01
      -2    -1     0     0     0   511  0.000000000E+00  0.000000000E+00  1.184267450E+01  1.184267450E+01  0.000000000E+00  0.00000E+00  9.000E+00
       2    -1     0     0   501     0  0.000000000E+00  0.000000000E+00 -9.579182687E+02  9.579182687E+02  0.000000000E+00  0.00000E+00  9.000E+00
      23     2     1     2     0     0 -4.516026810E+00  3.849813133E+00 -9.426780877E+02  9.629229164E+02  1.963246048E+02  0.00000E+00  9.000E+00
      13     1     3     3     0     0 -5.967573579E+01  3.983316581E+01 -8.246357552E+02  8.277511790E+02  1.056583668E-01  0.00000E+00  9.000E+00
     -13     1     3     3     0     0  5.515970898E+01 -3.598335268E+01 -1.180423325E+02  1.351717374E+02  1.056583668E-01  0.00000E+00  9.000E+00
      21     1     1     2   501   511  4.516026810E+00 -3.849813133E+00 -3.397506523E+00  6.838026754E+00  1.192092896E-07  0.00000E+00  9.000E+00
#pdf  -2  2 0.15565836E-02 0.14651777E+00 0.19632460E+03 0.13437214E+01 0.53897479E+00
#rwgt            1           4   3993.6599856737530         54217137    18343164           0
</event>
<event>
      6  10013  3.31628E+03  1.60482E+01 -1.00000E+00  1.74618E-01
       2    -1     0     0   501     0  0.000000000E+00  0.000000000E+00  9.052589534E+02  9.052589534E+02  0.000000000E+00  0.00000E+00  9.000E+00
      -2    -1     0     0     0   511  0.000000000E+00  0.000000000E+00 -4.915103218E+00  4.915103218E+00  0.000000000E+00  0.00000E+00  9.000E+00
      23     2     1     2     0     0 -1.574885023E+01 -3.085056974E+00  8.794375549E+02  8.838184682E+02  8.641254451E+01  0.00000E+00  9.000E+00
      13     1     3     3     0     0 -7.159944159E+00 -2.632398990E+01  9.122785542E+01  9.521948337E+01  1.056583668E-01  0.00000E+00  9.000E+00
     -13     1     3     3     0     0 -8.588906067E+00  2.323893293E+01  7.882096995E+02  7.885989848E+02  1.056583668E-01  0.00000E+00  9.000E+00
      21     1     1     2   501   511  1.574885023E+01  3.085056974E+00  2.090629528E+01  2.635558844E+01  1.039242493E-06  0.00000E+00  9.000E+00
#pdf   2 -2 0.13335485E+00 0.33132796E-03 0.86412545E+02 0.57368040E+00 0.21871764E+01
#rwgt            1           7   1628.5586133573192         54217137    18343313           0
</event>
<event>
      6  10013 -3.31628E+03  5.35615E+01 -1.00000E+00  1.37364E-01
      21    -1     0     0   501   511  0.000000000E+00  0.000000000E+00  2.493312098E+02  2.493312098E+02  0.000000000E+00  0.00000E+00  9.000E+00
      -4    -1     0     0     0   501  0.000000000E+00  0.000000000E+00 -2.534383781E+01  2.534383781E+01  0.000000000E+00  0.00000E+00  9.000E+00
      23     2     1     2     0     0  3.041695847E+01  4.408674856E+01  2.117014824E+02  2.197225605E+02  2.432392169E+01  0.00000E+00  9.000E+00
      13     1     3     3     0     0  1.511243229E+01  6.364176514E+00  8.738888255E+01  8.891409511E+01  1.056583668E-01  0.00000E+00  9.000E+00
     -13     1     3     3     0     0  1.530452618E+01  3.772257205E+01  1.243125999E+02  1.308084654E+02  1.056583668E-01  0.00000E+00  9.000E+00
      -4     1     1     2     0   511 -3.041695847E+01 -4.408674856E+01  1.228588961E+01  5.495248716E+01  0.000000000E+00  0.00000E+00  9.000E+00
#pdf   4 -4 0.13722273E-01 0.25512584E-03 0.24323922E+02 0.23116288E+00 0.13803628E+01
#rwgt            1           9  -584.13295787210598         54217137    18343363           0
</event>
<event>
      6  10013  3.31628E+03  1.90152E+01 -1.00000E+00  1.68156E-01
      21    -1     0     0   511   501  0.000000000E+00  0.000000000E+00  9.443254502E+00  9.443254502E+00  0.000000000E+00  0.00000E+00  9.000E+00
       1    -1     0     0   501     0  0.000000000E+00  0.000000000E+00 -3.398032872E+02  3.398032872E+02  0.000000000E+00  0.00000E+00  9.000E+00
      23     2     1     2     0     0 -1.845859877E+01 -4.567035651E+00 -2.832886164E+02  2.984794666E+02  9.206505370E+01  0.00000E+00  9.000E+00
      13     1     3     3     0     0  1.177382906E+01  3.432527046E+01 -1.851354224E+02  1.886583765E+02  1.056583668E-01  0.00000E+00  9.000E+00
     -13     1     3     3     0     0 -3.023242783E+01 -3.889230611E+01 -9.815319396E+01  1.098210900E+02  1.056583668E-01  0.00000E+00  9.000E+00
       1     1     1     2   511     0  1.845859877E+01  4.567035651E+00 -4.707141634E+01  5.076707515E+01  0.000000000E+00  0.00000E+00  9.000E+00
#pdf  -1  1 0.11443729E-02 0.43826356E-01 0.92065054E+02 0.13833349E+01 0.45889799E+00
#rwgt            1           5   942.09637935957176         54217137    18343390           0
</event>
<event>
      6  10013  3.31628E+03  4.28964E+01 -1.00000E+00  1.42952E-01
      21    -1     0     0   511   501  0.000000000E+00  0.000000000E+00  2.078482373E+00  2.078482373E+00  0.000000000E+00  0.00000E+00  9.000E+00
       2    -1     0     0   501     0  0.000000000E+00  0.000000000E+00 -2.424958723E+03  2.424958723E+03  0.000000000E+00  0.00000E+00  9.000E+00
      23     2     1     2     0     0 -3.754856212E+01 -2.074141461E+01 -1.705877831E+03  1.708752752E+03  8.931232713E+01  0.00000E+00  9.000E+00
      13     1     3     3     0     0 -2.080691010E+01 -5.336017863E+01 -7.554296720E+02  7.575976747E+02  1.056583668E-01  0.00000E+00  9.000E+00
     -13     1     3     3     0     0 -1.674165202E+01  3.261876403E+01 -9.504481591E+02  9.511550772E+02  1.056583668E-01  0.00000E+00  9.000E+00
       2     1     1     2   511     0  3.754856212E+01  2.074141461E+01 -7.170024097E+02  7.182844536E+02  0.000000000E+00  0.00000E+00  9.000E+00
#pdf  -2  2 0.19934674E-03 0.23677016E+00 0.89312327E+02 0.26516874E+01 0.43870280E+00
#rwgt            1           4   1614.6840966741479         54217137    18343456           0
</event>
<event>
      6  10013  3.31628E+03  4.46604E+00 -1.00000E+00  2.52581E-01
       2    -1     0     0   501     0  0.000000000E+00  0.000000000E+00  3.660904632E+03  3.660904632E+03  0.000000000E+00  0.00000E+00  9.000E+00
      21    -1     0     0   511   501  0.000000000E+00  0.000000000E+00 -1.099340493E-01  1.099340493E-01  0.000000000E+00  0.00000E+00  9.000E+00
      23     2     1     2     0     0 -9.632994604E-01  4.360914279E+00  3.585470954E+03  3.585558540E+03  2.466036635E+01  0.00000E+00  9.000E+00
      13     1     3     3     0     0 -8.347223073E+00  1.144777079E+01  2.469811687E+03  2.469852325E+03  1.056583668E-01  0.00000E+00  9.000E+00
     -13     1     3     3     0     0  7.383923613E+00 -7.086856515E+00  1.115659267E+03  1.115706214E+03  1.056583668E-01  0.00000E+00  9.000E+00
       2     1     1     2   511     0  9.632994604E-01 -4.360914279E+00  7.532374415E+01  7.545602661E+01  0.000000000E+00  0.00000E+00  9.000E+00
#pdf   2 -2 0.54278830E+00 0.66295166E-05 0.24660366E+02 0.10031391E+00 0.52983581E+01
#rwgt            1           7   3543.9095271810952         54217137    18343554           0
</event>
<event>
      6  10013  3.31628E+03  9.51560E+00 -1.00000E+00  1.98223E-01
      21    -1     0     0   501   511  0.000000000E+00  0.000000000E+00  1.946183012E+02  1.946183012E+02  0.000000000E+00  0.00000E+00  9.000E+00
      -2    -1     0     0     0   501  0.000000000E+00  0.000000000E+00 -6.054122475E+00  6.054122475E+00  0.000000000E+00  0.00000E+00  9.000E+00
      23     2     1     2     0     0  4.280643571E+00  8.498398941E+00  5.805789934E+01  6.981969863E+01  3.759686086E+01  0.00000E+00  9.000E+00
      13     1     3     3     0     0 -1.324239939E+01  1.500190464E+01  3.225912021E+01  3.796156326E+01  1.056583668E-01  0.00000E+00  9.000E+00
     -13     1     3     3     0     0  1.752304296E+01 -6.503505704E+00  2.579877913E+01  3.185813537E+01  1.056583668E-01  0.00000E+00  9.000E+00
      -2     1     1     2     0   511 -4.280643571E+00 -8.498398941E+00  1.305062794E+02  1.308527251E+02  0.000000000E+00  0.00000E+00  9.000E+00
#pdf   2 -2 0.95360515E-02 0.87709751E-03 0.37596861E+02 0.71946808E+00 0.12910238E+01
#rwgt            1           7   1411.6694805073296         54217137    18343618           0
</event>
<event>
      6  10013  3.31628E+03  1.83755E+01 -1.00000E+00  1.69420E-01
       1    -1     0     0   501     0  0.000000000E+00  0.000000000E+00  6.816908217E+02  6.816908217E+02  0.000000000E+00  0.00000E+00  9.000E+00
      21    -1     0     0   511   501  0.000000000E+00  0.000000000E+00 -5.742349412E+00  5.742349412E+00  0.000000000E+00  0.00000E+00  9.000E+00
      23     2     1     2     0     0 -9.920817462E+00  1.546725823E+01  6.532832285E+02  6.582548920E+02  7.863121203E+01  0.00000E+00  9.000E+00
      13     1     3     3     0     0 -5.765446927E+00  4.575035758E+01  4.876014944E+02  4.897770555E+02  1.056583668E-01  0.00000E+00  9.000E+00
     -13     1     3     3     0     0 -4.155370535E+00 -3.028309935E+01  1.656817341E+02  1.684778365E+02  1.056583668E-01  0.00000E+00  9.000E+00
       1     1     1     2   511     0  9.920817462E+00 -1.546725823E+01  2.266524381E+01  2.917827914E+01  0.000000000E+00  0.00000E+00  9.000E+00
#pdf   1 -1 0.98240647E-01 0.37240201E-03 0.78631212E+02 0.36588796E+00 0.20607725E+01
#rwgt            1           6   909.54337598074176         54217137    18343651           0
</event>
<event>
      6  10013  3.31628E+03  6.26041E+00 -1.00000E+00  2.22567E-01
       2    -1     0     0   501     0  0.000000000E+00  0.000000000E+00  1.947462148E+00  1.947462148E+00  0.000000000E+00  0.00000E+00  9.000E+00
      -2    -1     0     0     0   511  0.000000000E+00  0.000000000E+00 -1.180468190E+02  1.180468190E+02  0.000000000E+00  0.00000E+00  9.000E+00
      23     2     1     2     0     0  1.201111324E+00 -6.144112861E+00 -8.567589001E+01  8.893337122E+01  2.301290063E+01  0.00000E+00  9.000E+00
      13     1     3     3     0     0  3.266225865E+00 -1.458388509E+01 -5.971371439E+01  6.155563976E+01  1.056583668E-01  0.00000E+00  9.000E+00
     -13     1     3     3     0     0 -2.065114541E+00  8.439772225E+00 -2.596217562E+01  2.737773146E+01  1.056583668E-01  0.00000E+00  9.000E+00
      21     1     1     2   501   511 -1.201111324E+00  6.144112861E+00 -3.042346688E+01  3.106090997E+01  4.768371582E-07  0.00000E+00  9.000E+00
#pdf   2 -2 0.24178833E-03 0.12960468E-01 0.23012901E+02 0.17859543E+01 0.40761938E+00
#rwgt            1           7   739.34637548201806         54217137    18343703           0
</event>
<event>
      6  10013  3.31628E+03  8.75287E+00 -1.00000E+00  2.02628E-01
      -2    -1     0     0     0   501  0.000000000E+00  0.000000000E+00  3.587071144E+01  3.587071144E+01  0.000000000E+00  0.00000E+00  9.000E+00
       2    -1     0     0   511     0  0.000000000E+00  0.000000000E+00 -5.441565058E+01  5.441565058E+01  0.000000000E+00  0.00000E+00  9.000E+00
      23     2     1     2     0     0 -8.470554672E+00 -2.205110878E+00 -1.632887480E+01  8.125731159E+01  7.911703814E+01  0.00000E+00  9.000E+00
      13     1     3     3     0     0  3.162043406E+01  3.358466230E+00  9.567439091E+00  3.320659874E+01  1.056583668E-01  0.00000E+00  9.000E+00
     -13     1     3     3     0     0 -4.009098873E+01 -5.563577108E+00 -2.589631389E+01  4.805071284E+01  1.056583668E-01  0.00000E+00  9.000E+00
      21     1     1     2   511   501  8.470554672E+00  2.205110878E+00 -2.216064335E+00  9.029050425E+00  1.192092896E-07  0.00000E+00  9.000E+00
#pdf  -2  2 0.49642080E-02 0.74611087E-02 0.79117038E+02 0.72366317E+00 0.80594087E+00
#rwgt            1           4   799.82433050289399         54217137    18343808           0
</event>
<event>
      6  10013  3.31628E+03  1.33266E+01 -1.00000E+00  1.82314E-01
       1    -1     0     0   501     0  0.000000000E+00  0.000000000E+00  5.714646069E+02  5.714646069E+02  0.000000000E+00  0.00000E+00  9.000E+00
      -1    -1     0     0     0   511  0.000000000E+00  0.000000000E+00 -8.792218969E+00  8.792218969E+00  0.000000000E+00  0.00000E+00  9.000E+00
      23     2     1     2     0     0  1.032122390E+01 -8.430281848E+00  5.590163548E+02  5.664378573E+02  9.041550712E+01  0.00000E+00  9.000E+00
      13     1     3     3     0     0 -1.301822807E+01 -4.222967314E+01  1.865073045E+02  1.916710864E+02  1.056583668E-01  0.00000E+00  9.000E+00
     -13     1     3     3     0     0  2.333945197E+01  3.379939129E+01  3.725090503E+02  3.747667709E+02  1.056583668E-01  0.00000E+00  9.000E+00
      21     1     1     2   501   511 -1.032122390E+01  8.430281848E+00  3.656033168E+00  1.381896861E+01  7.884953353E-07  0.00000E+00  9.000E+00
#pdf   1 -1 0.85648067E-01 0.56478295E-03 0.90415507E+02 0.38252152E+00 0.18124828E+01
#rwgt            1           6   974.05785129777519         54217137    18343981           0
</event>
<event>
      6  10013  3.31628E+03  1.86749E+01 -1.00000E+00  1.68821E-01
      21    -1     0     0   511   501  0.000000000E+00  0.000000000E+00  3.144462097E+02  3.144462097E+02  0.000000000E+00  0.00000E+00  9.000E+00
       2    -1     0     0   501     0  0.000000000E+00  0.000000000E+00 -1.612544901E+01  1.612544901E+01  0.000000000E+00  0.00000E+00  9.000E+00
      23     2     1     2     0     0 -1.737126965E+01  6.854911207E+00  1.235500294E+02  1.548060212E+02  9.138678031E+01  0.00000E+00  9.000E+00
      13     1     3     3     0     0  1.392934124E+01 -2.376328175E+01  4.437132330E+00  2.790016871E+01  1.056583668E-01  0.00000E+00  9.000E+00
     -13     1     3     3     0     0 -3.130061089E+01  3.061819296E+01  1.191128971E+02  1.269058525E+02  1.056583668E-01  0.00000E+00  9.000E+00
       2     1     1     2   511     0  1.737126965E+01 -6.854911207E+00  1.747707312E+02  1.757656375E+02  0.000000000E+00  0.00000E+00  9.000E+00
#pdf  -2  2 0.20978465E-01 0.23556260E-02 0.91386780E+02 0.34333173E+00 0.11387665E+01
#rwgt            1           4   450.75420882487737         54217137    18344069           0
</event>
<event>
      5  10013  3.31628E+03  8.94427E-01 -1.00000E+00  7.21129E-01
       1    -1     0     0   501     0  0.000000000E+00  0.000000000E+00  3.806918101E+00  3.806918101E+00  0.000000000E+00  0.00000E+00  9.000E+00
      -1    -1     0     0     0   501  0.000000000E+00  0.000000000E+00 -2.858272209E+01  2.858272209E+01  0.000000000E+00  0.00000E+00  9.000E+00
      23     2     1     2     0     0  0.000000000E+00  0.000000000E+00 -2.477580399E+01  3.238964019E+01  2.086260598E+01  0.00000E+00  9.000E+00
      13     1     3     3     0     0 -4.199061215E+00  5.364484278E+00 -1.248398285E-01  6.814437272E+00  1.056583668E-01  0.00000E+00  9.000E+00
     -13     1     3     3     0     0  4.199061215E+00 -5.364484278E+00 -2.465096416E+01  2.557520292E+01  1.056583668E-01  0.00000E+00  9.000E+00
#pdf   1 -1 0.58567971E-03 0.43973419E-02 0.20862606E+02 0.13208690E+01 0.64802049E+00
#rwgt            1           6   171.50676402422630         54217137    18344120           0
</event>
<event>
      6  10013  3.31628E+03  6.50222E+00 -1.00000E+00  2.20109E-01
      -2    -1     0     0     0   501  0.000000000E+00  0.000000000E+00  1.153320707E+00  1.153320707E+00  0.000000000E+00  0.00000E+00  9.000E+00
       2    -1     0     0   511     0  0.000000000E+00  0.000000000E+00 -3.893801325E+03  3.893801325E+03  0.000000000E+00  0.00000E+00  9.000E+00
      23     2     1     2     0     0 -3.211594504E+00  5.653721753E+00 -1.817141343E+03  1.819437800E+03  9.115352954E+01  0.00000E+00  9.000E+00
      13     1     3     3     0     0 -3.214471854E+01  3.144258956E+01 -1.328882564E+03  1.329643110E+03  1.056583668E-01  0.00000E+00  9.000E+00
     -13     1     3     3     0     0  2.893312404E+01 -2.578886781E+01 -4.882587793E+02  4.897946898E+02  1.056583668E-01  0.00000E+00  9.000E+00
      21     1     1     2   511   501  3.211594504E+00 -5.653721753E+00 -2.075506661E+03  2.075516846E+03  4.315837288E-05  0.00000E+00  9.000E+00
#pdf  -2  2 0.17620276E-03 0.27902786E+00 0.91153530E+02 0.27849763E+01 0.37502414E+00
#rwgt            1           4   2119.5020722639679         54217137    18344287           0
</event>
<event>
      6  10013  3.31628E+03  5.44454E+01 -1.00000E+00  1.36969E-01
       3    -1     0     0   511     0  0.000000000E+00  0.000000000E+00  1.323766820E+02  1.323766820E+02  0.000000000E+00  0.00000E+00  9.000E+00
      -3    -1     0     0     0   501  0.000000000E+00  0.000000000E+00 -7.104345746E+01  7.104345746E+01  0.000000000E+00  0.00000E+00  9.000E+00
      23     2     1     2     0     0  5.317600789E+01  1.168813088E+01 -1.631301346E+01  1.085874526E+02  9.252470070E+01  0.00000E+00  9.000E+00
      13     1     3     3     0     0  2.886775208E+00  3.172882030E+01  2.499282307E+01  4.049325719E+01  1.056583668E-01  0.00000E+00  9.000E+00
     -13     1     3     3     0     0  5.028923268E+01 -2.004068942E+01 -4.130583653E+01  6.809419543E+01  1.056583668E-01  0.00000E+00  9.000E+00
      21     1     1     2   511   501 -5.317600789E+01 -1.168813088E+01  7.764623803E+01  9.483268687E+01  9.536743164E-07  0.00000E+00  9.000E+00
#pdf   3 -3 0.61174864E-02 0.82804828E-02 0.92524701E+02 0.63385090E+00 0.54236385E+00
#rwgt            1           8   531.66503357708666         54217137    18344396           0
</event>
<event>
      6  10013  3.31628E+03  2.25618E+01 -1.00000E+00  1.62123E-01
      21    -1     0     0   511   501  0.000000000E+00  0.000000000E+00  9.081409981E+01  9.081409981E+01  0.000000000E+00  0.00000E+00  9.000E+00
       4    -1     0     0   501     0  0.000000000E+00  0.000000000E+00 -3.191853582E+01  3.191853582E+01  0.000000000E+00  0.00000E+00  9.000E+00
      23     2     1     2     0     0  1.524350865E+01 -1.663340873E+01  3.787138983E+00  6.318455969E+01  5.889746446E+01  0.00000E+00  9.000E+00
      13     1     3     3     0     0 -9.556212766E+00 -3.061786582E+00  2.558726529E+01  2.748481486E+01  1.056583668E-01  0.00000E+00  9.000E+00
     -13     1     3     3     0     0  2.479972142E+01 -1.357162215E+01 -2.180012630E+01  3.569974483E+01  1.056583668E-01  0.00000E+00  9.000E+00
       4     1     1     2   511     0 -1.524350865E+01  1.663340873E+01  5.510842501E+01  5.954807594E+01  0.000000000E+00  0.00000E+00  9.000E+00
#pdf  -4  4 0.48107757E-02 0.42666929E-02 0.58897464E+02 0.50788448E+00 0.54147192E+00
#rwgt            1           2   197.21171608591268         54217137    18344440           0
</event>
<event>
      6  10013  3.31628E+03  5.33556E+00 -1.00000E+00  2.33606E-01
       1    -1     0     0   501     0  0.000000000E+00  0.000000000E+00  2.192678198E+02  2.192678198E+02  0.000000000E+00  0.00000E+00  9.000E+00
      -1    -1     0     0     0   511  0.000000000E+00  0.000000000E+00 -1.819850568E+00  1.819850568E+00  0.000000000E+00  0.00000E+00  9.000E+00
      23     2     1     2     0     0  5.192066098E+00 -1.229085492E+00  2.119744588E+02  2.134438809E+02  2.442643847E+01  0.00000E+00  9.000E+00
      13     1     3     3     0     0  1.258671713E+00  4.171947366E-01 -9.306629760E-02  1.333465769E+00  1.056583668E-01  0.00000E+00  9.000E+00
     -13     1     3     3     0     0  3.933394385E+00 -1.646280229E+00  2.120675251E+02  2.121104151E+02  1.056583668E-01  0.00000E+00  9.000E+00
      21     1     1     2   501   511 -5.192066098E+00  1.229085492E+00  5.473510451E+00  7.643789516E+00  1.192092896E-07  0.00000E+00  9.000E+00
#pdf   1 -1 0.31970661E-01 0.11042870E-03 0.24426438E+02 0.48054509E+00 0.22923726E+01
#rwgt            1           6   373.57585916234410         54217137    18344473           0
</event>
<event>
      6  10013  3.31628E+03  9.59339E+00 -1.00000E+00  1.97805E-01
      -2    -1     0     0     0   501  0.000000000E+00  0.000000000E+00  1.113959284E+02  1.113959284E+02  0.000000000E+00  0.00000E+00  9.000E+00
      21    -1     0     0   501   511  0.000000000E+00  0.000000000E+00 -2.350696688E+01  2.350696688E+01  0.000000000E+00  0.00000E+00  9.000E+00
      23     2     1     2     0     0  1.971645210E+00  9.388593589E+00  1.090673313E+02  1.116530260E+02  2.187881166E+01  0.00000E+00  9.000E+00
      13     1     3     3     0     0  1.008423974E+01  1.164381360E+01  7.436107549E+01  7.593978534E+01  1.056583668E-01  0.00000E+00  9.000E+00
     -13     1     3     3     0     0 -8.112594531E+00 -2.255220009E+00  3.470625578E+01  3.571324070E+01  1.056583668E-01  0.00000E+00  9.000E+00
      -2     1     1     2     0   511 -1.971645210E+00 -9.388593589E+00 -2.117836975E+01  2.324986924E+01  0.000000000E+00  0.00000E+00  9.000E+00
#pdf  -2  2 0.15549375E-01 0.18215782E-03 0.21878812E+02 0.37140203E+00 0.19150621E+01
#rwgt            1           4   722.23407787870747         54217137    18344521           0
</event>
<event>
      6  10013  3.31628E+03  5.60955E+00 -1.00000E+00  2.30026E-01
      -2    -1     0     0     0   501  0.000000000E+00  0.000000000E+00  1.445275818E+00  1.445275818E+00  0.000000000E+00  0.00000E+00  9.000E+00
       2    -1     0     0   511     0  0.000000000E+00  0.000000000E+00 -1.781366211E+03  1.781366211E+03  0.000000000E+00  0.00000E+00  9.000E+00
      23     2     1     2     0     0 -5.422644176E+00  1.435968859E+00 -1.515825027E+03  1.518656011E+03  9.251539304E+01  0.00000E+00  9.000E+00
      13     1     3     3     0     0 -1.988231157E+00 -9.591048060E+00 -1.493393047E+03  1.493425172E+03  1.056583668E-01  0.00000E+00  9.000E+00
     -13     1     3     3     0     0 -3.434413019E+00  1.102701692E+01 -2.243198019E+01  2.523083815E+01  1.056583668E-01  0.00000E+00  9.000E+00
      21     1     1     2   511   501  5.422644176E+00 -1.435968859E+00 -2.640959078E+02  2.641554762E+02  5.394796609E-06  0.00000E+00  9.000E+00
#pdf  -2  2 0.21736874E-03 0.23299372E+00 0.92515393E+02 0.25891291E+01 0.44297907E+00
#rwgt            1           4   3218.1871977416799         54217137    18344573           0
</event>
<event>
      6  10013  3.31628E+03  3.78868E+01 -1.00000E+00  1.46285E-01
       2    -1     0     0   501     0  0.000000000E+00  0.000000000E+00  9.532913268E+02  9.532913268E+02  0.000000000E+00  0.00000E+00  9.000E+00
      21    -1     0     0   511   501  0.000000000E+00  0.000000000E+00 -9.118403061E+00  9.118403061E+00  0.000000000E+00  0.00000E+00  9.000E+00
      23     2     1     2     0     0 -3.462996631E+01 -1.536789597E+01  2.616498999E+02  2.788359703E+02  8.861953160E+01  0.00000E+00  9.000E+00
      13     1     3     3     0     0 -2.859507367E+01 -5.048025556E+01  1.924263855E+02  2.009822366E+02  1.056583668E-01  0.00000E+00  9.000E+00
     -13     1     3     3     0     0 -6.034892645E+00  3.511235960E+01  6.922351441E+01  7.785373361E+01  1.056583668E-01  0.00000E+00  9.000E+00
       2     1     1     2   511     0  3.462996631E+01  1.536789597E+01  6.825230238E+02  6.835737596E+02  0.000000000E+00  0.00000E+00  9.000E+00
#pdf   2 -2 0.38228739E-01 0.12155763E-02 0.88619532E+02 0.64188630E+00 0.13343581E+01
#rwgt            1           7   772.73790447750946         54217137    18344697           0
</event>
<event>
      6  10013  3.31628E+03  4.44591E+00 -1.00000E+00  2.53004E-01
      21    -1     0     0   501   511  0.000000000E+00  0.000000000E+00  1.534002659E+01  1.534002659E+01  0.000000000E+00  0.00000E+00  9.000E+00
      -4    -1     0     0     0   501  0.000000000E+00  0.000000000E+00 -2.200266005E+01  2.200266005E+01  0.000000000E+00  0.00000E+00  9.000E+00
      23     2     1     2     0     0  1.304604831E+00  4.250189958E+00 -1.243700352E+01  3.005506302E+01  2.699743780E+01  0.00000E+00  9.000E+00
      13     1     3     3     0     0  3.151189378E+00  4.950326568E+00  7.777787533E+00  9.743760579E+00  1.056583668E-01  0.00000E+00  9.000E+00
     -13     1     3     3     0     0 -1.846584547E+00 -7.001366099E-01 -2.021479105E+01  2.031130244E+01  1.056583668E-01  0.00000E+00  9.000E+00
      -4     1     1     2     0   511 -1.304604831E+00 -4.250189958E+00  5.774370062E+00  7.287623622E+00  0.000000000E+00  0.00000E+00  9.000E+00
#pdf   4 -4 0.13372244E-02 0.32251810E-02 0.26997438E+02 0.77190662E+00 0.52632318E+00
#rwgt            1           9   354.55079492737536         54217137    18344736           0
</event>
<event>
      6  10013  3.31628E+03  8.35036E+01 -1.00000E+00  1.27431E-01
      21    -1     0     0   511   501  0.000000000E+00  0.000000000E+00  3.731097979E+02  3.731097979E+02  0.000000000E+00  0.00000E+00  9.000E+00
       2    -1     0     0   501     0  0.000000000E+00  0.000000000E+00 -2.156992804E+02  2.156992804E+02  0.000000000E+00  0.00000E+00  9.000E+00
      23     2     1     2     0     0 -6.339043757E+01  5.435529821E+01 -1.922540428E+02  2.293119979E+02  9.300284617E+01  0.00000E+00  9.000E+00
      13     1     3     3     0     0 -7.715946985E+01  6.980904602E+01 -1.548305451E+02  1.865459609E+02  1.056583668E-01  0.00000E+00  9.000E+00
     -13     1     3     3     0     0  1.376903229E+01 -1.545374782E+01 -3.742349776E+01  4.276603699E+01  1.056583668E-01  0.00000E+00  9.000E+00
       2     1     1     2   511     0  6.339043757E+01 -5.435529821E+01  3.496645603E+02  3.594970803E+02  0.000000000E+00  0.00000E+00  9.000E+00
#pdf  -2  2 0.21210983E-02 0.24129314E-01 0.93002846E+02 0.10696605E+01 0.66598503E+00
#rwgt            1           4   679.95061698400468         54217137    18344861           0
</event>
<event>
      6  10013  3.31628E+03  4.04424E+01 -1.00000E+00  1.44513E-01
      -3    -1     0     0     0   501  0.000000000E+00  0.000000000E+00  6.338610014E+01  6.338610014E+01  0.000000000E+00  0.00000E+00  9.000E+00
       3    -1     0     0   511     0  0.000000000E+00  0.000000000E+00 -8.248619193E+01  8.248619193E+01  0.000000000E+00  0.00000E+00  9.000E+00
      23     2     1     2     0     0 -2.572857433E+01 -3.120297562E+01  7.202351223E+00  9.762911916E+01  8.856627925E+01  0.00000E+00  9.000E+00
      13     1     3     3     0     0 -5.741010593E+01 -1.098822903E+01  1.221455816E+01  5.971488956E+01  1.056583668E-01  0.00000E+00  9.000E+00
     -13     1     3     3     0     0  3.168153160E+01 -2.021474659E+01 -5.012206933E+00  3.791422960E+01  1.056583668E-01  0.00000E+00  9.000E+00
      21     1     1     2   511   501  2.572857433E+01  3.120297562E+01 -2.630244301E+01  4.824317291E+01  8.920806376E-07  0.00000E+00  9.000E+00
#pdf  -3  3 0.73353760E-02 0.63274353E-02 0.88566279E+02 0.57567045E+00 0.62055516E+00
#rwgt            1           3   370.82926806922347         54217137    18344886           0
</event>
<event>
      6  10013  3.31628E+03  2.92522E+00 -1.00000E+00  3.00092E-01
      -2    -1     0     0     0   501  0.000000000E+00  0.000000000E+00  9.425739988E+02  9.425739988E+02  0.000000000E+00  0.00000E+00  9.000E+00
       2    -1     0     0   511     0  0.000000000E+00  0.000000000E+00 -1.251507993E+00  1.251507993E+00  0.000000000E+00  0.00000E+00  9.000E+00
      23     2     1     2     0     0  1.411760868E+00  2.562000610E+00  9.302433497E+02  9.323666987E+02  6.282049201E+01  0.00000E+00  9.000E+00
      13     1     3     3     0     0 -5.801412938E+00  3.199048537E+01  4.585176179E+02  4.596688641E+02  1.056583668E-01  0.00000E+00  9.000E+00
     -13     1     3     3     0     0  7.213173806E+00 -2.942848476E+01  4.717257318E+02  4.726978345E+02  1.056583668E-01  0.00000E+00  9.000E+00
      21     1     1     2   511   501 -1.411760868E+00 -2.562000610E+00  1.107914113E+01  1.145880815E+01  1.685873940E-07  0.00000E+00  9.000E+00
#pdf  -2  2 0.14312262E+00 0.16315775E-03 0.62820492E+02 0.51845870E-01 0.26523067E+01
#rwgt            1           4   294.85114121989494         54217137    18344999           0
</event>
<event>
      6  10013  3.31628E+03  3.23267E+01 -1.00000E+00  1.50786E-01
      21    -1     0     0   501   511  0.000000000E+00  0.000000000E+00  1.376002219E+01  1.376002219E+01  0.000000000E+00  0.00000E+00  9.000E+00
      -4    -1     0     0     0   501  0.000000000E+00  0.000000000E+00 -3.447445465E+02  3.447445465E+02  0.000000000E+00  0.00000E+00  9.000E+00
      23     2     1     2     0     0  1.793759534E+01 -2.689342027E+01 -2.906080164E+02  3.067815006E+02  9.282702484E+01  0.00000E+00  9.000E+00
      13     1     3     3     0     0  5.110146764E+01 -3.718003797E+01 -2.000649102E+02  2.098087097E+02  1.056583668E-01  0.00000E+00  9.000E+00
     -13     1     3     3     0     0 -3.316387229E+01  1.028661769E+01 -9.054310615E+01  9.697279084E+01  1.056583668E-01  0.00000E+00  9.000E+00
      -4     1     1     2     0   511 -1.793759534E+01  2.689342027E+01 -4.037650796E+01  5.172306812E+01  0.000000000E+00  0.00000E+00  9.000E+00
#pdf   4 -4 0.11749086E-02 0.43396838E-01 0.92827025E+02 0.11002793E+01 0.99894733E-01
#rwgt            1           9   108.25182896812512         54217137    18345238           0
</event>
<event>
      6  10013  3.31628E+03  1.28668E+00 -1.00000E+00  5.03942E-01
       1    -1     0     0   511     0  0.000000000E+00  0.000000000E+00  7.043105406E+00  7.043105406E+00  0.000000000E+00  0.00000E+00  9.000E+00
      -1    -1     0     0     0   501  0.000000000E+00  0.000000000E+00 -7.349843950E+01  7.349843950E+01  0.000000000E+00  0.00000E+00  9.000E+00
      23     2     1     2     0     0 -1.049225714E+00 -7.447610235E-01 -6.654326001E+01  7.925186489E+01  4.302554000E+01  0.00000E+00  9.000E+00
      13     1     3     3     0     0 -1.315449810E+01 -1.148536556E+01 -5.874817277E+01  6.128877066E+01  1.056583668E-01  0.00000E+00  9.000E+00
     -13     1     3     3     0     0  1.210527239E+01  1.074060453E+01 -7.795087244E+00  1.796309423E+01  1.056583668E-01  0.00000E+00  9.000E+00
      21     1     1     2   511   501  1.049225714E+00  7.447610235E-01  8.792591493E-02  1.289680018E+00  2.307726386E-08  0.00000E+00  9.000E+00
#pdf   1 -1 0.97714815E-03 0.11209998E-01 0.43025540E+02 0.13250963E+01 0.48344531E+00
#rwgt            1           6   306.06092065192644         54217137    18345295           0
</event>
<event>
      6  10013  3.31628E+03  1.22221E+01 -1.00000E+00  1.86142E-01
      -1    -1     0     0     0   501  0.000000000E+00  0.000000000E+00  3.821509353E+00  3.821509353E+00  0.000000000E+00  0.00000E+00  9.000E+00
       1    -1     0     0   511     0  0.000000000E+00  0.000000000E+00 -1.677753920E+03  1.677753920E+03  0.000000000E+00  0.00000E+00  9.000E+00
      23     2     1     2     0     0 -7.702035869E+00  9.489895566E+00 -5.735033164E+02  5.810784639E+02  9.271864877E+01  0.00000E+00  9.000E+00
      13     1     3     3     0     0  2.572031940E+01  1.476469149E+01 -4.911558322E+02  4.920503974E+02  1.056583668E-01  0.00000E+00  9.000E+00
     -13     1     3     3     0     0 -3.342235527E+01 -5.274795922E+00 -8.234748418E+01  8.902806647E+01  1.056583668E-01  0.00000E+00  9.000E+00
      21     1     1     2   511   501  7.702035869E+00 -9.489895566E+00 -1.100429094E+03  1.100496966E+03  1.525878906E-05  0.00000E+00  9.000E+00
#pdf  -1  1 0.57770608E-03 0.88052267E-01 0.92718649E+02 0.18052104E+01 0.37857466E+00
#rwgt            1           5   1393.8597125132344         54217137    18345426           0
</event>
<event>
      6  10013  3.31628E+03  2.28318E+00 -1.00000E+00  3.38021E-01
       2    -1     0     0   511     0  0.000000000E+00  0.000000000E+00  5.018499405E-01  5.018499405E-01  0.000000000E+00  0.00000E+00  9.000E+00
      -2    -1     0     0     0   501  0.000000000E+00  0.000000000E+00 -3.127594971E+02  3.127594971E+02  0.000000000E+00  0.00000E+00  9.000E+00
      23     2     1     2     0     0  8.230446308E-01 -2.129671225E+00 -2.956172053E+02  2.964650020E+02  2.228794360E+01  0.00000E+00  9.000E+00
      13     1     3     3     0     0  8.477861276E+00 -6.156066010E+00 -8.117478750E+01  8.184820443E+01  1.056583668E-01  0.00000E+00  9.000E+00
     -13     1     3     3     0     0 -7.654816645E+00  4.026394785E+00 -2.144424178E+02  2.146167975E+02  1.056583668E-01  0.00000E+00  9.000E+00
      21     1     1     2   511   501 -8.230446308E-01  2.129671225E+00 -1.664044189E+01  1.679634509E+01  3.371747881E-07  0.00000E+00  9.000E+00
#pdf   2 -2 0.64875617E-04 0.45307677E-01 0.22287944E+02 0.26233392E+01 0.19558649E+00
#rwgt            1           7   497.52150685211973         54217137    18345473           0
</event>
<event>
      6  10013  3.31628E+03  2.82682E+01 -1.00000E+00  1.54819E-01
      21    -1     0     0   511   501  0.000000000E+00  0.000000000E+00  9.931026614E+00  9.931026614E+00  0.000000000E+00  0.00000E+00  9.000E+00
       2    -1     0     0   501     0  0.000000000E+00  0.000000000E+00 -6.514452224E+02  6.514452224E+02  0.000000000E+00  0.00000E+00  9.000E+00
      23     2     1     2     0     0 -2.355147408E+01  1.563396112E+01 -6.149969329E+02  6.226172771E+02  9.290830758E+01  0.00000E+00  9.000E+00
      13     1     3     3     0     0  4.228746478E+00 -3.196645575E+01 -1.102030794E+02  1.148236320E+02  1.056583668E-01  0.00000E+00  9.000E+00
     -13     1     3     3     0     0 -2.778022056E+01  4.760041686E+01 -5.047938535E+02  5.077936451E+02  1.056583668E-01  0.00000E+00  9.000E+00
       2     1     1     2   511     0  2.355147408E+01 -1.563396112E+01 -2.651726290E+01  3.875897191E+01  0.000000000E+00  0.00000E+00  9.000E+00
#pdf  -2  2 0.56079721E-03 0.91078642E-01 0.92908308E+02 0.18200053E+01 0.60858050E+00
#rwgt            1           4   1041.3949221706869         54217137    18345534           0
</event>
<event>
      6  10013  3.31628E+03  6.81997E+01 -1.00000E+00  1.31771E-01
       1    -1     0     0   511     0  0.000000000E+00  0.000000000E+00  8.986188481E+02  8.986188481E+02  0.000000000E+00  0.00000E+00  9.000E+00
      -1    -1     0     0     0   501  0.000000000E+00  0.000000000E+00 -9.604845962E+00  9.604845962E+00  0.000000000E+00  0.00000E+00  9.000E+00
      23     2     1     2     0     0 -1.953027951E+01  6.534347918E+01  5.564202722E+02  5.687096423E+02  9.579110577E+01  0.00000E+00  9.000E+00
      13     1     3     3     0     0 -4.343274050E+01 -6.279420270E-01  1.456454090E+02  1.519848466E+02  1.056583668E-01  0.00000E+00  9.000E+00
     -13     1     3     3     0     0  2.390246099E+01  6.597142120E+01  4.107748631E+02  4.167247958E+02  1.056583668E-01  0.00000E+00  9.000E+00
      21     1     1     2   511   501  1.953027951E+01 -6.534347918E+01  3.325937300E+02  3.395140518E+02  3.814697266E-06  0.00000E+00  9.000E+00
#pdf   1 -1 0.70504747E-01 0.77009679E-03 0.95791106E+02 0.40593351E+00 0.16257421E+01
#rwgt            1           6   691.87151689913242         54217137    18345589           0
</event>
<event>
      6  10013  3.31628E+03  4.96559E+00 -1.00000E+00  2.43049E-01
       2    -1     0     0   501     0  0.000000000E+00  0.000000000E+00  1.465960744E+03  1.465960744E+03  0.000000000E+00  0.00000E+00  9.000E+00
      21    -1     0     0   511   501  0.000000000E+00  0.000000000E+00 -1.779516310E-01  1.779516310E-01  0.000000000E+00  0.00000E+00  9.000E+00
      23     2     1     2     0     0 -4.553603403E+00  1.980348073E+00  1.294534581E+03  1.294818507E+03  2.665573078E+01  0.00000E+00  9.000E+00
      13     1     3     3     0     0  8.214822002E+00 -7.120208555E+00  4.057391902E+02  4.058848141E+02  1.056583668E-01  0.00000E+00  9.000E+00
     -13     1     3     3     0     0 -1.276842541E+01  9.100556629E+00  8.887953905E+02  8.889336928E+02  1.056583668E-01  0.00000E+00  9.000E+00
       2     1     1     2   511     0  4.553603403E+00 -1.980348073E+00  1.712482120E+02  1.713201892E+02  0.000000000E+00  0.00000E+00  9.000E+00
#pdf   2 -2 0.19581239E+00 0.21471100E-04 0.26655731E+02 0.54234118E+00 0.38791466E+01
#rwgt            1           7   3575.4626348359361         54217137    18345620           0
</event>
<event>
      6  10013  3.31628E+03  1.85626E+01 -1.00000E+00  1.69044E-01
       2    -1     0     0   501     0  0.000000000E+00  0.000000000E+00  1.957428252E+03  1.957428252E+03  0.000000000E+00  0.00000E+00  9.000E+00
      21    -1     0     0   511   501  0.000000000E+00  0.000000000E+00 -3.223515945E+00  3.223515945E+00  0.000000000E+00  0.00000E+00  9.000E+00
      23     2     1     2     0     0 -3.261745933E+00 -1.827376399E+01  1.911097703E+03  1.913717924E+03  9.837322530E+01  0.00000E+00  9.000E+00
      13     1     3     3     0     0  2.126909667E+01 -4.694483666E+01  1.501936307E+03  1.502820306E+03  1.056583668E-01  0.00000E+00  9.000E+00
     -13     1     3     3     0     0 -2.453084260E+01  2.867107267E+01  4.091613967E+02  4.108976179E+02  1.056583668E-01  0.00000E+00  9.000E+00
       2     1     1     2   511     0  3.261745933E+00  1.827376399E+01  4.310703245E+01  4.693384369E+01  0.000000000E+00  0.00000E+00  9.000E+00
#pdf   2 -2 0.28911450E+00 0.19806021E-03 0.98373225E+02 0.35723574E+00 0.27135086E+01
#rwgt            1           7   3179.0562508488665         54217137    18345694           0
</event>
<event>
      6  10013  3.31628E+03  1.77521E+00 -1.00000E+00  3.88848E-01
      -1    -1     0     0     0   511  0.000000000E+00  0.000000000E+00  8.416433659E+00  8.416433659E+00  0.000000000E+00  0.00000E+00  9.000E+00
       1    -1     0     0   501     0  0.000000000E+00  0.000000000E+00 -2.587196286E+02  2.587196286E+02  0.000000000E+00  0.00000E+00  9.000E+00
      23     2     1     2     0     0 -6.107414955E-01  1.666844650E+00 -2.484140726E+02  2.645437352E+02  9.094330655E+01  0.00000E+00  9.000E+00
      13     1     3     3     0     0  8.911482252E+00  2.186983912E+01 -1.094909714E+01  2.603071784E+01  1.056583668E-01  0.00000E+00  9.000E+00
     -13     1     3     3     0     0 -9.522223748E+00 -2.020299447E+01 -2.374649755E+02  2.385130174E+02  1.056583668E-01  0.00000E+00  9.000E+00
      21     1     1     2   501   511  6.107414955E-01 -1.666844650E+00 -1.889122380E+00  2.592327068E+00  6.989264130E-08  0.00000E+00  9.000E+00
#pdf  -1  1 0.12405070E-02 0.39450778E-01 0.90943307E+02 0.13372804E+01 0.47040909E+00
#rwgt            1           5   711.46826825558844         54217137    18345731           0
</event>
<event>
      6  10013  3.31628E+03  1.10641E+01 -1.00000E+00  1.90758E-01
       2    -1     0     0   501     0  0.000000000E+00  0.000000000E+00  1.309914121E+02  1.309914121E+02  0.000000000E+00  0.00000E+00  9.000E+00
      -2    -1     0     0     0   511  0.000000000E+00  0.000000000E+00 -3.432719845E+01  3.432719845E+01  0.000000000E+00  0.00000E+00  9.000E+00
      23     2     1     2     0     0  1.055453759E+01  3.319047542E+00  1.119631267E+02  1.464381688E+02  9.373356486E+01  0.00000E+00  9.000E+00
      13     1     3     3     0     0  2.541948617E+01 -1.943754141E+01  1.147366690E+02  1.191154175E+02  1.056583668E-01  0.00000E+00  9.000E+00
     -13     1     3     3     0     0 -1.486494858E+01  2.275658895E+01 -2.773542318E+00  2.732275128E+01  1.056583668E-01  0.00000E+00  9.000E+00
      21     1     1     2   501   511 -1.055453759E+01 -3.319047542E+00 -1.529891308E+01  1.888044178E+01  3.769728732E-07  0.00000E+00  9.000E+00
#pdf   2 -2 0.19739981E-01 0.26336426E-02 0.93733565E+02 0.68149833E+00 0.97659199E+00
#rwgt            1           7   948.20753400663568         54217137    18345940           0
</event>
<event>
      6  10013  3.31628E+03  3.51227E+00 -1.00000E+00  2.77407E-01
       2    -1     0     0   511     0  0.000000000E+00  0.000000000E+00  4.426772866E+00  4.426772866E+00  0.000000000E+00  0.00000E+00  9.000E+00
      -2    -1     0     0     0   501  0.000000000E+00  0.000000000E+00 -8.124994606E+01  8.124994606E+01  0.000000000E+00  0.00000E+00  9.000E+00
      23     2     1     2     0     0 -3.403777572E+00 -8.662103725E-01 -7.896704403E+01  8.156184294E+01  2.010482924E+01  0.00000E+00  9.000E+00
      13     1     3     3     0     0 -5.322559179E+00 -5.659941701E-01 -7.939089628E+01  7.957119806E+01  1.056583668E-01  0.00000E+00  9.000E+00
     -13     1     3     3     0     0  1.918781607E+00 -3.002162024E-01  4.238522446E-01  1.990644880E+00  1.056583668E-01  0.00000E+00  9.000E+00
      21     1     1     2   511   501  3.403777572E+00  8.662103725E-01  2.143870841E+00  4.114875982E+00  1.074538015E-07  0.00000E+00  9.000E+00
#pdf   2 -2 0.19662208E-03 0.12164150E-01 0.20104829E+02 0.18222371E+01 0.41382022E+00
#rwgt            1           7   595.77515676134067         54217137    18345993           0
</event>
<event>
      6  10013  3.31628E+03  6.93527E+00 -1.00000E+00  2.16054E-01
       1    -1     0     0   501     0  0.000000000E+00  0.000000000E+00  1.146894727E+01  1.146894727E+01  0.000000000E+00  0.00000E+00  9.000E+00
      -1    -1     0     0     0   511  0.000000000E+00  0.000000000E+00 -1.415093118E+02  1.415093118E+02  0.000000000E+00  0.00000E+00  9.000E+00
      23     2     1     2     0     0 -6.440526643E+00  2.572459475E+00 -4.930732909E+01  7.194788857E+01  5.193445905E+01  0.00000E+00  9.000E+00
      13     1     3     3     0     0 -1.434698863E+00 -2.004253648E+01 -4.372630389E+01  4.812236949E+01  1.056583668E-01  0.00000E+00  9.000E+00
     -13     1     3     3     0     0 -5.005827780E+00  2.261499595E+01 -5.581025199E+00  2.382551908E+01  1.056583668E-01  0.00000E+00  9.000E+00
      21     1     1     2   501   511  6.440526643E+00 -2.572459475E+00 -8.073303546E+01  8.103037051E+01  9.536743164E-07  0.00000E+00  9.000E+00
#pdf   1 -1 0.17262577E-02 0.92452551E-02 0.51934459E+02 0.11311134E+01 0.53655304E+00
#rwgt            1           6   421.50515283014022         54217137    18346048           0
</event>
<event>
      6  10013  3.31628E+03  2.64910E+01 -1.00000E+00  1.56852E-01
       2    -1     0     0   511     0  0.000000000E+00  0.000000000E+00  9.140056018E+02  9.140056018E+02  0.000000000E+00  0.00000E+00  9.000E+00
      -2    -1     0     0     0   501  0.000000000E+00  0.000000000E+00 -4.600773591E+00  4.600773591E+00  0.000000000E+00  0.00000E+00  9.000E+00
      23     2     1     2     0     0  3.739848708E+00  2.622563946E+01  5.937663408E+02  6.018581704E+02  9.472602162E+01  0.00000E+00  9.000E+00
      13     1     3     3     0     0  2.663696545E+01 -2.842265604E+01  2.191650124E+02  2.225998408E+02  1.056583668E-01  0.00000E+00  9.000E+00
     -13     1     3     3     0     0 -2.289711675E+01  5.464829551E+01  3.746013285E+02  3.792583296E+02  1.056583668E-01  0.00000E+00  9.000E+00
      21     1     1     2   511   501 -3.739848708E+00 -2.622563946E+01  3.156384874E+02  3.167482050E+02  0.000000000E+00  0.00000E+00  9.000E+00
#pdf   2 -2 0.88572721E-01 0.59944854E-03 0.94726022E+02 0.61006251E+00 0.17803321E+01
#rwgt            1           7   1240.1398988099138         54217137    18346114           0
</event>
<event>
      6  10013  3.31628E+03  4.87842E+01 -1.00000E+00  1.39659E-01
      21    -1     0     0   511   501  0.000000000E+00  0.000000000E+00  5.724457719E+00  5.724457719E+00  0.000000000E+00  0.00000E+00  9.000E+00
       2    -1     0     0   501     0  0.000000000E+00  0.000000000E+00 -2.094012987E+03  2.094012987E+03  0.000000000E+00  0.00000E+00  9.000E+00
      23     2     1     2     0     0  1.685883819E+01 -4.577858254E+01 -1.958028604E+03  1.960641984E+03  8.866271138E+01  0.00000E+00  9.000E+00
      13     1     3     3     0     0  3.085045803E+01 -5.969689910E+01 -1.816667174E+03  1.817909542E+03  1.056583668E-01  0.00000E+00  9.000E+00
     -13     1     3     3     0     0 -1.399161984E+01  1.391831656E+01 -1.413614307E+02  1.427324427E+02  1.056583668E-01  0.00000E+00  9.000E+00
       2     1     1     2   511     0 -1.685883819E+01  4.577858254E+01 -1.302599249E+02  1.390954603E+02  0.000000000E+00  0.00000E+00  9.000E+00
#pdf  -2  2 0.17612847E-03 0.26409839E+00 0.88662711E+02 0.27684750E+01 0.39835498E+00
#rwgt            1           4   1509.5886903241826         54217137    18346164           0
</event>
<event>
      6  10013  3.31628E+03  9.47347E+00 -1.00000E+00  1.98452E-01
      21    -1     0     0   511   501  0.000000000E+00  0.000000000E+00  2.064240966E-01  2.064240966E-01  0.000000000E+00  0.00000E+00  9.000E+00
       2    -1     0     0   501     0  0.000000000E+00  0.000000000E+00 -2.383108347E+03  2.383108347E+03  0.000000000E+00  0.00000E+00  9.000E+00
      23     2     1     2     0     0  1.483487713E+00 -9.356592488E+00 -6.658602121E+02  6.662469264E+02  2.062518745E+01  0.00000E+00  9.000E+00
      13     1     3     3     0     0 -6.763140459E+00 -9.358897160E+00 -2.138911609E+02  2.142026351E+02  1.056583668E-01  0.00000E+00  9.000E+00
     -13     1     3     3     0     0  8.246628172E+00  2.304672728E-03 -4.519690512E+02  4.520442913E+02  1.056583668E-01  0.00000E+00  9.000E+00
       2     1     1     2   511     0 -1.483487713E+00  9.356592488E+00 -1.717041711E+03  1.717067844E+03  0.000000000E+00  0.00000E+00  9.000E+00
#pdf  -2  2 0.27032120E-04 0.93117005E-01 0.20625187E+02 0.32861904E+01 0.62778443E+00
#rwgt            1           4   2641.6550192791915         54217137    18346214           0
</event>
<event>
      6  10013  3.31628E+03  1.44590E+01 -1.00000E+00  1.78851E-01
       4    -1     0     0   501     0  0.000000000E+00  0.000000000E+00  7.840526179E+00  7.840526179E+00  0.000000000E+00  0.00000E+00  9.000E+00
      21    -1     0     0   511   501  0.000000000E+00  0.000000000E+00 -1.023817466E+02  1.023817466E+02  0.000000000E+00  0.00000E+00  9.000E+00
      23     2     1     2     0     0 -4.276696351E+00  1.381206171E+01 -7.054217724E+01  8.220411342E+01  3.965166217E+01  0.00000E+00  9.000E+00
      13     1     3     3     0     0 -1.689193585E+01  2.592099456E+00 -5.979780978E+01  6.219200667E+01  1.056583668E-01  0.00000E+00  9.000E+00
     -13     1     3     3     0     0  1.261523949E+01  1.121996225E+01 -1.074436746E+01  2.001210674E+01  1.056583668E-01  0.00000E+00  9.000E+00
       4     1     1     2   511     0  4.276696351E+00 -1.381206171E+01 -2.399904316E+01  2.801815934E+01  0.000000000E+00  0.00000E+00  9.000E+00
#pdf   4 -4 0.84278741E-03 0.11038703E-01 0.39651662E+02 0.10385903E+01 0.29115195E+00
#rwgt            1           9   350.21366834455620         54217137    18346271           0
</event>
<event>
      6  10013  3.31628E+03  1.83895E+00 -1.00000E+00  3.80750E-01
      -2    -1     0     0     0   501  0.000000000E+00  0.000000000E+00  2.253840368E+01  2.253840368E+01  0.000000000E+00  0.00000E+00  9.000E+00
       2    -1     0     0   511     0  0.000000000E+00  0.000000000E+00 -3.170071869E+01  3.170071869E+01  0.000000000E+00  0.00000E+00  9.000E+00
      23     2     1     2     0     0  1.819453250E-01 -1.829922104E+00  8.716829929E+00  3.626565463E+01  3.515441455E+01  0.00000E+00  9.000E+00
      13     1     3     3     0     0  9.490622613E+00 -7.692641855E-01 -1.093171505E+01  1.449749091E+01  1.056583668E-01  0.00000E+00  9.000E+00
     -13     1     3     3     0     0 -9.308677288E+00 -1.060657918E+00  1.964854498E+01  2.176816372E+01  1.056583668E-01  0.00000E+00  9.000E+00
      21     1     1     2   511   501 -1.819453250E-01  1.829922104E+00 -1.787914494E+01  1.797346775E+01  0.000000000E+00  0.00000E+00  9.000E+00
#pdf  -2  2 0.34554666E-02 0.21162469E-02 0.35154415E+02 0.76072618E+00 0.10236566E+01
#rwgt            1           4   645.45287288110319         54217137    18346338           0
</event>
<event>
      6  10013  3.31628E+03  1.39329E+01 -1.00000E+00  1.80408E-01
      21    -1     0     0   501   511  0.000000000E+00  0.000000000E+00  3.854602289E+01  3.854602289E+01  0.000000000E+00  0.00000E+00  9.000E+00
      -1    -1     0     0     0   501  0.000000000E+00  0.000000000E+00 -9.426949139E+01  9.426949139E+01  0.000000000E+00  0.00000E+00  9.000E+00
      23     2     1     2     0     0  1.361138017E+01 -2.975967597E+00 -5.531772762E+01  1.188766951E+02  1.042952137E+02  0.00000E+00  9.000E+00
      13     1     3     3     0     0 -3.591018680E+01  2.292314582E+01 -4.514469027E+01  6.207307269E+01  1.056583668E-01  0.00000E+00  9.000E+00
     -13     1     3     3     0     0  4.952156697E+01 -2.589911341E+01 -1.017303735E+01  5.680362245E+01  1.056583668E-01  0.00000E+00  9.000E+00
      -1     1     1     2     0   511 -1.361138017E+01  2.975967597E+00 -4.057408837E-01  1.393881914E+01  0.000000000E+00  0.00000E+00  9.000E+00
#pdf   1 -1 0.48460994E-02 0.13281580E-01 0.10429521E+03 0.86538901E+00 0.47361586E+00
#rwgt            1           6   399.28664363580123         54217137    18346587           0
</event>
<event>
      6  10013  3.31628E+03  2.73506E+01 -1.00000E+00  1.55846E-01
      -2    -1     0     0     0   501  0.000000000E+00  0.000000000E+00  3.016551269E+01  3.016551269E+01  0.000000000E+00  0.00000E+00  9.000E+00
      21    -1     0     0   501   511  0.000000000E+00  0.000000000E+00 -1.489200193E+02  1.489200193E+02  0.000000000E+00  0.00000E+00  9.000E+00
      23     2     1     2     0     0 -2.497720156E+01 -1.114421848E+01 -1.169149943E+02  1.516731624E+02  9.266918635E+01  0.00000E+00  9.000E+00
      13     1     3     3     0     0 -4.936638697E+01  1.112524960E+00 -1.139841536E+02  1.242202734E+02  1.056583668E-01  0.00000E+00  9.000E+00
     -13     1     3     3     0     0  2.438918540E+01 -1.225674344E+01 -2.930840639E+00  2.745288901E+01  1.056583668E-01  0.00000E+00  9.000E+00
      -2     1     1     2     0   511  2.497720156E+01  1.114421848E+01 -1.839512370E+00  2.741236964E+01  0.000000000E+00  0.00000E+00  9.000E+00
#pdf  -2  2 0.25643483E-02 0.19815589E-01 0.92669186E+02 0.98640042E+00 0.68088036E+00
#rwgt            1           4   809.92758883619183         54217137    18346684           0
</event>
<event>
      6  10013  3.31628E+03  7.19838E+00 -1.00000E+00  2.13782E-01
       3    -1     0     0   501     0  0.000000000E+00  0.000000000E+00  6.144872473E+01  6.144872473E+01  0.000000000E+00  0.00000E+00  9.000E+00
      21    -1     0     0   511   501  0.000000000E+00  0.000000000E+00 -9.092858313E+01  9.092858313E+01  0.000000000E+00  0.00000E+00  9.000E+00
      23     2     1     2     0     0  7.172784148E+00 -6.064455866E-01  2.707434831E+01  9.536682720E+01  9.115917280E+01  0.00000E+00  9.000E+00
      13     1     3     3     0     0 -1.629860995E+00  3.707608892E+01 -1.331790878E+01  3.942931237E+01  1.056583668E-01  0.00000E+00  9.000E+00
     -13     1     3     3     0     0  8.802645142E+00 -3.768253450E+01  4.039225709E+01  5.593751482E+01  1.056583668E-01  0.00000E+00  9.000E+00
       3     1     1     2   511     0 -7.172784148E+00  6.064455866E-01 -5.655420670E+01  5.701048066E+01  0.000000000E+00  0.00000E+00  9.000E+00
#pdf   3 -3 0.93893241E-02 0.52369655E-02 0.91159173E+02 0.50622759E+00 0.68328498E+00
#rwgt            1           8   353.61205447711325         54217137    18346738           0
</event>
<event>
      6  10013  3.31628E+03  5.05091E+00 -1.00000E+00  2.37663E-01
      -2    -1     0     0     0   501  0.000000000E+00  0.000000000E+00  2.148671616E+01  2.148671616E+01  0.000000000E+00  0.00000E+00  9.000E+00
      21    -1     0     0   501   511  0.000000000E+00  0.000000000E+00 -3.766311312E+01  3.766311312E+01  0.000000000E+00  0.00000E+00  9.000E+00
      23     2     1     2     0     0  5.011893576E+00  6.266166427E-01  1.517606476E+01  2.739312005E+01  2.223866811E+01  0.00000E+00  9.000E+00
      13     1     3     3     0     0 -2.512081578E+00  6.461937615E+00  1.638760317E+01  1.779415334E+01  1.056583668E-01  0.00000E+00  9.000E+00
     -13     1     3     3     0     0  7.523975155E+00 -5.835320972E+00 -1.211538417E+00  9.598966715E+00  1.056583668E-01  0.00000E+00  9.000E+00
      -2     1     1     2     0   511 -5.011893576E+00 -6.266166427E-01 -3.135246172E+01  3.175670923E+01  0.000000000E+00  0.00000E+00  9.000E+00
#pdf  -2  2 0.31932272E-02 0.91643364E-03 0.22238668E+02 0.72569184E+00 0.11890344E+01
#rwgt            1           4   779.61670127677883         54217137    18346805           0
</event>
<event>
      6  10013  3.31628E+03  2.42348E+01 -1.00000E+00  1.59730E-01
       3    -1     0     0   501     0  0.000000000E+00  0.000000000E+00  3.604060113E+02  3.604060113E+02  0.000000000E+00  0.00000E+00  9.000E+00
      -3    -1     0     0     0   511  0.000000000E+00  0.000000000E+00 -1.939147997E+01  1.939147997E+01  0.000000000E+00  0.00000E+00  9.000E+00
      23     2     1     2     0     0  2.346141182E+01  6.073530107E+00  3.379307752E+02  3.553672812E+02  1.072444410E+02  0.00000E+00  9.000E+00
      13     1     3     3     0     0  2.856533492E+01  6.458901487E+00  3.452198931E+02  3.464599277E+02  1.056583668E-01  0.00000E+00  9.000E+00
     -13     1     3     3     0     0 -5.103923100E+00 -3.853713802E-01 -7.289117924E+00  8.907353474E+00  1.056583668E-01  0.00000E+00  9.000E+00
      21     1     1     2   501   511 -2.346141182E+01 -6.073530107E+00  3.083756174E+00  2.443021008E+01  1.884864366E-07  0.00000E+00  9.000E+00
#pdf   3 -3 0.52018964E-01 0.13082814E-02 0.10724444E+03 0.14425961E+00 0.12951222E+01
#rwgt            1           8   395.96465954810100         54217137    18346852           0
</event>
<event>
      6  10013  3.31628E+03  5.40981E+01 -1.00000E+00  1.37123E-01
      21    -1     0     0   501   511  0.000000000E+00  0.000000000E+00  4.343580373E+01  4.343580373E+01  0.000000000E+00  0.00000E+00  9.000E+00
      -2    -1     0     0     0   501  0.000000000E+00  0.000000000E+00 -1.518608237E+02  1.518608237E+02  0.000000000E+00  0.00000E+00  9.000E+00
      23     2     1     2     0     0  2.686740910E+01 -4.695475784E+01 -8.306810564E+01  1.355506647E+02  9.245034114E+01  0.00000E+00  9.000E+00
      13     1     3     3     0     0  2.775337977E+01 -5.607787178E+00  1.285202470E+01  3.109474342E+01  1.056583668E-01  0.00000E+00  9.000E+00
     -13     1     3     3     0     0 -8.859706790E-01 -4.134697066E+01 -9.592013034E+01  1.044559213E+02  1.056583668E-01  0.00000E+00  9.000E+00
      -2     1     1     2     0   511 -2.686740910E+01  4.695475784E+01 -2.535691434E+01  5.974596271E+01  0.000000000E+00  0.00000E+00  9.000E+00
#pdf   2 -2 0.34844075E-02 0.14514477E-01 0.92450341E+02 0.10073610E+01 0.42723415E+00
#rwgt            1           7   554.03858055627006         54217137    18346917           0
</event>
<event>
      6  10013  3.31628E+03  3.66945E+00 -1.00000E+00  2.72504E-01
       2    -1     0     0   511     0  0.000000000E+00  0.000000000E+00  3.585960254E+03  3.585960254E+03  0.000000000E+00  0.00000E+00  9.000E+00
      -2    -1     0     0     0   501  0.000000000E+00  0.000000000E+00 -6.395719892E-01  6.395719892E-01  0.000000000E+00  0.00000E+00  9.000E+00
      23     2     1     2     0     0  7.880263053E-01 -3.583839644E+00  3.326673739E+03  3.327926855E+03  9.124428910E+01  0.00000E+00  9.000E+00
      13     1     3     3     0     0  1.990147553E+01  2.977576668E+01  6.563893779E+02  6.573657213E+02  1.056583668E-01  0.00000E+00  9.000E+00
     -13     1     3     3     0     0 -1.911344923E+01 -3.335960633E+01  2.670284361E+03  2.670561133E+03  1.056583668E-01  0.00000E+00  9.000E+00
      21     1     1     2   511   501 -7.880263053E-01  3.583839644E+00  2.586469432E+02  2.586729713E+02  5.394796609E-06  0.00000E+00  9.000E+00
#pdf   2 -2 0.51147891E+00 0.96315669E-04 0.91244289E+02 0.98262449E-01 0.34531768E+01
#rwgt            1           7   1755.4181563985358         54217137    18347048           0
</event>
<event>
      6  10013  3.31628E+03  7.97386E+00 -1.00000E+00  2.07790E-01
       3    -1     0     0   501     0  0.000000000E+00  0.000000000E+00  1.099495255E+01  1.099495255E+01  0.000000000E+00  0.00000E+00  9.000E+00
      -3    -1     0     0     0   511  0.000000000E+00  0.000000000E+00 -3.079846987E+01  3.079846987E+01  0.000000000E+00  0.00000E+00  9.000E+00
      23     2     1     2     0     0 -3.062969799E+00 -7.362108620E+00 -1.256554759E+01  3.102445622E+01  2.722207689E+01  0.00000E+00  9.000E+00
      13     1     3     3     0     0  1.075920453E+01  2.814699489E+00 -3.815660095E+00  1.175812234E+01  1.056583668E-01  0.00000E+00  9.000E+00
     -13     1     3     3     0     0 -1.382217432E+01 -1.017680811E+01 -8.749887491E+00  1.926633388E+01  1.056583668E-01  0.00000E+00  9.000E+00
      21     1     1     2   501   511  3.062969799E+00  7.362108620E+00 -7.237969737E+00  1.076896621E+01  8.429369702E-08  0.00000E+00  9.000E+00
#pdf   3 -3 0.13626599E-02 0.32178689E-02 0.27222077E+02 0.99084742E+00 0.71562963E+00
#rwgt            1           8   201.60820231995766         54217137    18347179           0
</event>
<event>
      6  10013  3.31628E+03  2.28681E+00 -1.00000E+00  3.37745E-01
      -4    -1     0     0     0   501  0.000000000E+00  0.000000000E+00  1.505620562E+01  1.505620562E+01  0.000000000E+00  0.00000E+00  9.000E+00
      21    -1     0     0   501   511  0.000000000E+00  0.000000000E+00 -8.847451541E+00  8.847451541E+00  0.000000000E+00  0.00000E+00  9.000E+00
      23     2     1     2     0     0  1.191361229E+00 -1.951965211E+00  5.743223520E+00  2.156994157E+01  2.066514585E+01  0.00000E+00  9.000E+00
      13     1     3     3     0     0  3.365649531E-01 -8.469333552E+00 -4.347599092E+00  9.526576947E+00  1.056583668E-01  0.00000E+00  9.000E+00
     -13     1     3     3     0     0  8.547962760E-01  6.517368341E+00  1.009082261E+01  1.204336462E+01  1.056583668E-01  0.00000E+00  9.000E+00
      -4     1     1     2     0   511 -1.191361229E+00  1.951965211E+00  4.655305597E-01  2.333715592E+00  0.000000000E+00  0.00000E+00  9.000E+00
#pdf  -4  4 0.20882655E-02 0.12100534E-02 0.20665146E+02 0.59174988E+00 0.73806213E+00
#rwgt            1           2   434.61997486602218         54217137    18347325           0
</event>
<event>
      6  10013  3.31628E+03  1.99422E+00 -1.00000E+00  3.63443E-01
       1    -1     0     0   511     0  0.000000000E+00  0.000000000E+00  9.008023343E+02  9.008023343E+02  0.000000000E+00  0.00000E+00  9.000E+00
      -1    -1     0     0     0   501  0.000000000E+00  0.000000000E+00 -2.996070230E+00  2.996070230E+00  0.000000000E+00  0.00000E+00  9.000E+00
      23     2     1     2     0     0 -1.732470392E+00  9.876610437E-01  7.548985417E+02  7.608767685E+02  9.517180086E+01  0.00000E+00  9.000E+00
      13     1     3     3     0     0 -1.178204436E+01 -3.109542595E+01  6.471738915E+02  6.480276222E+02  1.056583668E-01  0.00000E+00  9.000E+00
     -13     1     3     3     0     0  1.004957397E+01  3.208308700E+01  1.077246502E+02  1.128491464E+02  1.056583668E-01  0.00000E+00  9.000E+00
      21     1     1     2   511   501  1.732470392E+00 -9.876610437E-01  1.429077224E+02  1.429216360E+02  0.000000000E+00  0.00000E+00  9.000E+00
#pdf   1 -1 0.11657251E+00 0.45976268E-03 0.95171801E+02 0.33707102E+00 0.19775900E+01
#rwgt            1           6   1449.4421966194645         54217137    18347429           0
</event>
<event>
      6  10013  3.31628E+03  5.65798E+00 -1.00000E+00  2.29423E-01
      -2    -1     0     0     0   511  0.000000000E+00  0.000000000E+00  3.465534860E-01  3.465534860E-01  0.000000000E+00  0.00000E+00  9.000E+00
       2    -1     0     0   501     0  0.000000000E+00  0.000000000E+00 -7.029229596E+02  7.029229596E+02  0.000000000E+00  0.00000E+00  9.000E+00
      23     2     1     2     0     0 -6.695498764E-01 -5.618225590E+00 -6.213209926E+02  6.218173493E+02  2.418733805E+01  0.00000E+00  9.000E+00
      13     1     3     3     0     0 -5.551634022E+00  4.353830322E+00 -6.435066433E+01  6.473635487E+01  1.056583668E-01  0.00000E+00  9.000E+00
     -13     1     3     3     0     0  4.882084145E+00 -9.972055912E+00 -5.569703282E+02  5.570809944E+02  1.056583668E-01  0.00000E+00  9.000E+00
      21     1     1     2   501   511  6.695498764E-01  5.618225590E+00 -8.125541354E+01  8.145216379E+01  9.536743164E-07  0.00000E+00  9.000E+00
#pdf  -2  2 0.37177651E-04 0.93112395E-01 0.24187338E+02 0.31770225E+01 0.62570227E+00
#rwgt            1           4   2188.5882786075945         54217137    18347625           0
</event>
<event>
      6  10013  3.31628E+03  2.03065E+00 -1.00000E+00  3.59806E-01
       2    -1     0     0   511     0  0.000000000E+00  0.000000000E+00  1.228202578E+03  1.228202578E+03  0.000000000E+00  0.00000E+00  9.000E+00
      -2    -1     0     0     0   501  0.000000000E+00  0.000000000E+00 -9.733056234E-01  9.733056234E-01  0.000000000E+00  0.00000E+00  9.000E+00
      23     2     1     2     0     0 -7.171827989E-01 -1.899790924E+00  9.968650960E+02  9.988027573E+02  6.215146729E+01  0.00000E+00  9.000E+00
      13     1     3     3     0     0 -5.930861824E+00  1.503746615E+01  7.302911166E+01  7.479681025E+01  1.056583668E-01  0.00000E+00  9.000E+00
     -13     1     3     3     0     0  5.213679025E+00 -1.693725708E+01  9.238359843E+02  9.240059471E+02  1.056583668E-01  0.00000E+00  9.000E+00
      21     1     1     2   511   501  7.171827989E-01  1.899790924E+00  2.303641769E+02  2.303731268E+02  5.394796609E-06  0.00000E+00  9.000E+00
#pdf   2 -2 0.15343104E+00 0.14897138E-03 0.62151467E+02 0.56127441E+00 0.27033701E+01
#rwgt            1           7   5961.6591535880489         54217137    18347697           0
</event>
<event>
      6  10013  3.31628E+03  1.80564E+00 -1.00000E+00  3.84901E-01
       2    -1     0     0   511     0  0.000000000E+00  0.000000000E+00  1.508583426E+00  1.508583426E+00  0.000000000E+00  0.00000E+00  9.000E+00
      -2    -1     0     0     0   501  0.000000000E+00  0.000000000E+00 -1.144533688E+03  1.144533688E+03  0.000000000E+00  0.00000E+00  9.000E+00
      23     2     1     2     0     0  3.884578753E-01 -1.763356533E+00 -1.124722799E+03  1.127651112E+03  8.119357925E+01  0.00000E+00  9.000E+00
      13     1     3     3     0     0 -2.543791300E+01  2.711789705E+01 -7.523224786E+02  7.532407256E+02  1.056583668E-01  0.00000E+00  9.000E+00
     -13     1     3     3     0     0  2.582637088E+01 -2.888125358E+01 -3.724003199E+02  3.744103867E+02  1.056583668E-01  0.00000E+00  9.000E+00
      21     1     1     2   511   501 -3.884578753E-01  1.763356533E+00 -1.830230573E+01  1.839115877E+01  0.000000000E+00  0.00000E+00  9.000E+00
#pdf   2 -2 0.22519923E-03 0.17321670E+00 0.81193579E+02 0.25175109E+01 0.36365853E-01
#rwgt            1           7   153.32392656866574         54217137    18347836           0
</event>
<event>
      6  10013  3.31628E+03  1.79628E+00 -1.00000E+00  3.86098E-01
      -1    -1     0     0     0   511  0.000000000E+00  0.000000000E+00  4.225627097E+00  4.225627097E+00  0.000000000E+00  0.00000E+00  9.000E+00
       1    -1     0     0   501     0  0.000000000E+00  0.000000000E+00 -5.629941651E+02  5.629941651E+02  0.000000000E+00  0.00000E+00  9.000E+00
      23     2     1     2     0     0  1.466173811E+00 -1.037770240E+00 -5.572928552E+02  5.648950831E+02  9.234663943E+01  0.00000E+00  9.000E+00
      13     1     3     3     0     0  6.648180497E+00 -3.121568142E+01 -4.891353655E+02  4.901755135E+02  1.056583668E-01  0.00000E+00  9.000E+00
     -13     1     3     3     0     0 -5.182006686E+00  3.017791118E+01 -6.815748964E+01  7.471956956E+01  1.056583668E-01  0.00000E+00  9.000E+00
      21     1     1     2   501   511 -1.466173811E+00  1.037770240E+00 -1.475682827E+00  2.324709127E+00  1.154238983E-07  0.00000E+00  9.000E+00
#pdf  -1  1 0.58467616E-03 0.86305823E-01 0.92346639E+02 0.17957008E+01 0.38126486E+00
#rwgt            1           5   1229.5270021809299         54217137    18348056           0
</event>
<event>
      6  10013  3.31628E+03  1.24389E+01 -1.00000E+00  1.85350E-01
       3    -1     0     0   501     0  0.000000000E+00  0.000000000E+00  1.564675609E+02  1.564675609E+02  0.000000000E+00  0.00000E+00  9.000E+00
      -3    -1     0     0     0   511  0.000000000E+00  0.000000000E+00 -5.866913568E+01  5.866913568E+01  0.000000000E+00  0.00000E+00  9.000E+00
      23     2     1     2     0     0 -5.745872525E+00  1.103227845E+01  1.530221710E+02  1.585293798E+02  3.951016639E+01  0.00000E+00  9.000E+00
      13     1     3     3     0     0  1.045464471E+01 -2.416691263E+00  1.265678318E+01  1.659353238E+01  1.056583668E-01  0.00000E+00  9.000E+00
     -13     1     3     3     0     0 -1.620051723E+01  1.344896971E+01  1.403653878E+02  1.419358475E+02  1.056583668E-01  0.00000E+00  9.000E+00
      21     1     1     2   501   511  5.745872525E+00 -1.103227845E+01 -5.522374572E+01  5.660731675E+01  6.743495762E-07  0.00000E+00  9.000E+00
#pdf   3 -3 0.22859393E-01 0.40407904E-03 0.39510166E+02 0.28015340E+00 0.16656546E+01
#rwgt            1           8   167.89630801672499         54217137    18348317           0
</event>
<event>
      6  10013  3.31628E+03  8.98220E+00 -1.00000E+00  2.01243E-01
      -2    -1     0     0     0   501  0.000000000E+00  0.000000000E+00  2.301115021E+01  2.301115021E+01  0.000000000E+00  0.00000E+00  9.000E+00
      21    -1     0     0   501   511  0.000000000E+00  0.000000000E+00 -1.405047315E+02  1.405047315E+02  0.000000000E+00  0.00000E+00  9.000E+00
      23     2     1     2     0     0 -5.919482047E+00 -6.755708348E+00 -7.030057324E+01  1.154756915E+02  9.116899075E+01  0.00000E+00  9.000E+00
      13     1     3     3     0     0 -2.762673551E+01  9.469071435E+00 -8.117936267E+01  8.627282258E+01  1.056583668E-01  0.00000E+00  9.000E+00
     -13     1     3     3     0     0  2.170725346E+01 -1.622477978E+01  1.087878943E+01  2.920286895E+01  1.056583668E-01  0.00000E+00  9.000E+00
      -2     1     1     2     0   511  5.919482047E+00  6.755708348E+00 -4.719300801E+01  4.804019014E+01  0.000000000E+00  0.00000E+00  9.000E+00
#pdf  -2  2 0.34582655E-02 0.14221626E-01 0.91168991E+02 0.86451465E+00 0.71399558E+00
#rwgt            1           4   702.06389830786816         54217137    18348363           0
</event>
<event>
      6  10013  3.31628E+03  4.79924E+00 -1.00000E+00  2.46029E-01
      -2    -1     0     0     0   511  0.000000000E+00  0.000000000E+00  1.687446929E+00  1.687446929E+00  0.000000000E+00  0.00000E+00  9.000E+00
       2    -1     0     0   501     0  0.000000000E+00  0.000000000E+00 -1.790379636E+03  1.790379636E+03  0.000000000E+00  0.00000E+00  9.000E+00
      23     2     1     2     0     0  4.785671838E+00 -3.606540418E-01 -1.778311488E+03  1.780630664E+03  9.072364589E+01  0.00000E+00  9.000E+00
      13     1     3     3     0     0  1.555975886E+01 -8.526768611E-03 -5.182492425E+01  5.411044359E+01  1.056583668E-01  0.00000E+00  9.000E+00
     -13     1     3     3     0     0 -1.077408702E+01 -3.521272732E-01 -1.726486564E+03  1.726520220E+03  1.056583668E-01  0.00000E+00  9.000E+00
      21     1     1     2   501   511 -4.785671838E+00  3.606540418E-01 -1.038070079E+01  1.143641881E+01  6.194296387E-07  0.00000E+00  9.000E+00
#pdf  -2  2 0.17814905E-03 0.27338254E+00 0.90723646E+02 0.27710909E+01 0.38363347E+00
#rwgt            1           4   1851.1107068210652         54217137    18348512           0
</event>
<event>
      6  10013  3.31628E+03  4.95396E+00 -1.00000E+00  2.43252E-01
      21    -1     0     0   511   501  0.000000000E+00  0.000000000E+00  1.310374948E+01  1.310374948E+01  0.000000000E+00  0.00000E+00  9.000E+00
       2    -1     0     0   501     0  0.000000000E+00  0.000000000E+00 -3.071897467E+02  3.071897467E+02  0.000000000E+00  0.00000E+00  9.000E+00
      23     2     1     2     0     0  4.059898505E+00  2.838822736E+00 -3.062870339E+02  3.071250875E+02  2.212533768E+01  0.00000E+00  9.000E+00
      13     1     3     3     0     0 -4.029316956E-01 -9.490597014E+00 -1.398947721E+02  1.402169469E+02  1.056583668E-01  0.00000E+00  9.000E+00
     -13     1     3     3     0     0  4.462830201E+00  1.232941975E+01 -1.663922618E+02  1.669081406E+02  1.056583668E-01  0.00000E+00  9.000E+00
       2     1     1     2   511     0 -4.059898505E+00 -2.838822736E+00  1.220103668E+01  1.316840865E+01  0.000000000E+00  0.00000E+00  9.000E+00
#pdf  -2  2 0.62908059E-04 0.46045461E-01 0.22125338E+02 0.26276722E+01 0.62532875E+00
#rwgt            1           4   1665.8986443603014         54217137    18348619           0
</event>
<event>
      6  10013  3.31628E+03  6.13448E+00 -1.00000E+00  2.23910E-01
      -1    -1     0     0     0   501  0.000000000E+00  0.000000000E+00  1.310751230E+01  1.310751230E+01  0.000000000E+00  0.00000E+00  9.000E+00
       1    -1     0     0   511     0  0.000000000E+00  0.000000000E+00 -2.267032704E+02  2.267032704E+02  0.000000000E+00  0.00000E+00  9.000E+00
      23     2     1     2     0     0 -4.383910300E+00  4.291056045E+00 -1.944888885E+02  2.197432892E+02  1.020958057E+02  0.00000E+00  9.000E+00
      13     1     3     3     0     0 -2.743372463E+01  1.570914221E+01 -1.912173500E+02  1.938129834E+02  1.056583668E-01  0.00000E+00  9.000E+00
     -13     1     3     3     0     0  2.304981433E+01 -1.141808617E+01 -3.271538490E+00  2.593030582E+01  1.056583668E-01  0.00000E+00  9.000E+00
      21     1     1     2   511   501  4.383910300E+00 -4.291056045E+00 -1.910686955E+01  2.006749350E+01  4.768371582E-07  0.00000E+00  9.000E+00
#pdf  -1  1 0.19391489E-02 0.31806650E-01 0.10209581E+03 0.11347112E+01 0.49567528E+00
#rwgt            1           5   1067.3877210347662         54217137    18348662           0
</event>
<event>
      6  10013  3.31628E+03  6.05782E+00 -1.00000E+00  2.24749E-01
       1    -1     0     0   501     0  0.000000000E+00  0.000000000E+00  5.332951869E+02  5.332951869E+02  0.000000000E+00  0.00000E+00  9.000E+00
      21    -1     0     0   511   501  0.000000000E+00  0.000000000E+00 -4.963542099E+00  4.963542099E+00  0.000000000E+00  0.00000E+00  9.000E+00
      23     2     1     2     0     0  5.653666388E+00  2.175612902E+00  5.213771292E+02  5.290357944E+02  8.948778501E+01  0.00000E+00  9.000E+00
      13     1     3     3     0     0  2.190716881E+01  1.660895150E+01  4.905265350E+02  4.912963200E+02  1.056583668E-01  0.00000E+00  9.000E+00
     -13     1     3     3     0     0 -1.625350243E+01 -1.443333860E+01  3.085059424E+01  3.773947447E+01  1.056583668E-01  0.00000E+00  9.000E+00
       1     1     1     2   511     0 -5.653666388E+00 -2.175612902E+00  6.954515534E+00  9.222934536E+00  0.000000000E+00  0.00000E+00  9.000E+00
#pdf   1 -1 0.80616491E-01 0.58778286E-03 0.89487785E+02 0.39035034E+00 0.17819378E+01
#rwgt            1           6   1104.8536768942231         54217137    18348782           0
</event>
<event>
      6  10013  3.31628E+03  4.89156E+00 -1.00000E+00  2.44353E-01
       2    -1     0     0   511     0  0.000000000E+00  0.000000000E+00  2.457947984E+02  2.457947984E+02  0.000000000E+00  0.00000E+00  9.000E+00
      -2    -1     0     0     0   501  0.000000000E+00  0.000000000E+00 -1.118767332E+00  1.118767332E+00  0.000000000E+00  0.00000E+00  9.000E+00
      23     2     1     2     0     0 -2.980137520E+00 -3.878935608E+00  1.605153636E+02  1.626108652E+02  2.555746823E+01  0.00000E+00  9.000E+00
      13     1     3     3     0     0  1.049366791E+01 -5.197005842E+00  5.517435759E+01  5.640342929E+01  1.056583668E-01  0.00000E+00  9.000E+00
     -13     1     3     3     0     0 -1.347380543E+01  1.318070234E+00  1.053410060E+02  1.062074359E+02  1.056583668E-01  0.00000E+00  9.000E+00
      21     1     1     2   511   501  2.980137520E+00  3.878935608E+00  8.416066750E+01  8.430270053E+01  0.000000000E+00  0.00000E+00  9.000E+00
#pdf   2 -2 0.24412743E-01 0.15831876E-03 0.25557468E+02 0.63284796E+00 0.20744176E+01
#rwgt            1           7   1503.8126388391063         54217137    18348890           0
</event>
<event>
      6  10013  3.31628E+03  1.39410E+01 -1.00000E+00  1.80383E-01
      -2    -1     0     0     0   501  0.000000000E+00  0.000000000E+00  2.443181186E+00  2.443181186E+00  0.000000000E+00  0.00000E+00  9.000E+00
       2    -1     0     0   511     0  0.000000000E+00  0.000000000E+00 -1.543929680E+03  1.543929680E+03  0.000000000E+00  0.00000E+00  9.000E+00
      23     2     1     2     0     0  8.646323857E+00  1.093588970E+01 -1.346711006E+03  1.351099092E+03  1.079067573E+02  0.00000E+00  9.000E+00
      13     1     3     3     0     0  3.176797175E+01  4.872372656E+00 -1.276987100E+03  1.277391486E+03  1.056583668E-01  0.00000E+00  9.000E+00
     -13     1     3     3     0     0 -2.312164789E+01  6.063517041E+00 -6.972390681E+01  7.370760602E+01  1.056583668E-01  0.00000E+00  9.000E+00
      21     1     1     2   511   501 -8.646323857E+00 -1.093588970E+01 -1.947754922E+02  1.952737693E+02  0.000000000E+00  0.00000E+00  9.000E+00
#pdf  -2  2 0.33476275E-03 0.20581330E+00 0.10790676E+03 0.22761272E+01 0.47691228E+00
#rwgt            1           4   3236.2739950384248         54217137    18348969           0
</event>
<event>
      6  10013  3.31628E+03  2.99954E+01 -1.00000E+00  1.53009E-01
      -3    -1     0     0     0   501  0.000000000E+00  0.000000000E+00  2.759127149E+01  2.759127149E+01  0.000000000E+00  0.00000E+00  9.000E+00
      21    -1     0     0   501   511  0.000000000E+00  0.000000000E+00 -1.790794120E+02  1.790794120E+02  0.000000000E+00  0.00000E+00  9.000E+00
      23     2     1     2     0     0 -1.921209626E+01  2.303513314E+01 -1.486923665E+02  1.765453063E+02  9.032775502E+01  0.00000E+00  9.000E+00
      13     1     3     3     0     0 -4.106604643E+01 -5.833522307E+00 -1.286268624E+02  1.351492917E+02  1.056583668E-01  0.00000E+00  9.000E+00
     -13     1     3     3     0     0  2.185395017E+01  2.886865545E+01 -2.006550403E+01  4.139601456E+01  1.056583668E-01  0.00000E+00  9.000E+00
      -3     1     1     2     0   511  1.921209626E+01 -2.303513314E+01 -2.795774091E+00  3.012537725E+01  0.000000000E+00  0.00000E+00  9.000E+00
#pdf  -3  3 0.20333538E-02 0.23743392E-01 0.90327755E+02 0.10484792E+01 0.28378471E+00
#rwgt            1           3   392.75462213497116         54217137    18349087           0
</event>
<event>
      6  10013  3.31628E+03  4.78335E+00 -1.00000E+00  2.46323E-01
       1    -1     0     0   501     0  0.000000000E+00  0.000000000E+00  1.526595773E+02  1.526595773E+02  0.000000000E+00  0.00000E+00  9.000E+00
      -1    -1     0     0     0   511  0.000000000E+00  0.000000000E+00 -1.938355034E+01  1.938355034E+01  0.000000000E+00  0.00000E+00  9.000E+00
      23     2     1     2     0     0 -4.759377447E+00 -4.782479788E-01  1.377902522E+02  1.654659989E+02  9.148750074E+01  0.00000E+00  9.000E+00
      13     1     3     3     0     0  1.217800841E+01  3.189831207E+01  1.201195790E+02  1.248780631E+02  1.056583668E-01  0.00000E+00  9.000E+00
     -13     1     3     3     0     0 -1.693738585E+01 -3.237656004E+01  1.767067313E+01  4.058793580E+01  1.056583668E-01  0.00000E+00  9.000E+00
      21     1     1     2   501   511  4.759377447E+00  4.782479788E-01 -4.514225160E+00  6.577128827E+00  1.460009660E-07  0.00000E+00  9.000E+00
#pdf   1 -1 0.23295585E-01 0.21259997E-02 0.91487501E+02 0.53395997E+00 0.10764815E+01
#rwgt            1           6   877.62890802121353         54217137    18349116           0
</event>
<event>
      6  10013  3.31628E+03  8.90927E+00 -1.00000E+00  2.01678E-01
      -2    -1     0     0     0   501  0.000000000E+00  0.000000000E+00  1.104578000E+00  1.104578000E+00  0.000000000E+00  0.00000E+00  9.000E+00
      21    -1     0     0   501   511  0.000000000E+00  0.000000000E+00 -8.516709704E+02  8.516709704E+02  0.000000000E+00  0.00000E+00  9.000E+00
      23     2     1     2     0     0 -8.158816021E+00 -3.578937584E+00 -5.420503343E+02  5.441308770E+02  4.669551720E+01  0.00000E+00  9.000E+00
      13     1     3     3     0     0 -1.579385822E+01 -1.413007418E+00 -6.138744128E+01  6.340245782E+01  1.056583668E-01  0.00000E+00  9.000E+00
     -13     1     3     3     0     0  7.635042198E+00 -2.165930166E+00 -4.806628930E+02  4.807284191E+02  1.056583668E-01  0.00000E+00  9.000E+00
      -2     1     1     2     0   511  8.158816021E+00  3.578937584E+00 -3.085160581E+02  3.086446714E+02  0.000000000E+00  0.00000E+00  9.000E+00
#pdf  -2  2 0.15720596E-03 0.82071933E-01 0.46695517E+02 0.24682802E+01 0.62167296E+00
#rwgt            1           4   2103.7160059837806         54217137    18349210           0
</event>
<event>
      6  10013  3.31628E+03  7.85036E+00 -1.00000E+00  2.08682E-01
      21    -1     0     0   501   511  0.000000000E+00  0.000000000E+00  3.149785816E+01  3.149785816E+01  0.000000000E+00  0.00000E+00  9.000E+00
      -4    -1     0     0     0   501  0.000000000E+00  0.000000000E+00 -4.385259782E+01  4.385259782E+01  0.000000000E+00  0.00000E+00  9.000E+00
      23     2     1     2     0     0  6.987013152E+00  3.579081118E+00 -3.761548999E+01  4.889797630E+01  3.024002024E+01  0.00000E+00  9.000E+00
      13     1     3     3     0     0  2.854267631E+00  1.335397850E+01 -4.907278099E+00  1.451096577E+01  1.056583668E-01  0.00000E+00  9.000E+00
     -13     1     3     3     0     0  4.132745521E+00 -9.774897380E+00 -3.270821189E+01  3.438701053E+01  1.056583668E-01  0.00000E+00  9.000E+00
      -4     1     1     2     0   511 -6.987013152E+00 -3.579081118E+00  2.526075033E+01  2.645247968E+01  0.000000000E+00  0.00000E+00  9.000E+00
#pdf   4 -4 0.84003867E-03 0.64413689E-02 0.30240020E+02 0.96149836E+00 0.38118568E+00
#rwgt            1           9   396.66332723514449         54217137    18349294           0
</event>
<event>
      6  10013  3.31628E+03  9.57754E+00 -1.00000E+00  1.97890E-01
      21    -1     0     0   511   501  0.000000000E+00  0.000000000E+00  7.797078427E+01  7.797078427E+01  0.000000000E+00  0.00000E+00  9.000E+00
       4    -1     0     0   501     0  0.000000000E+00  0.000000000E+00 -7.859115665E+01  7.859115665E+01  0.000000000E+00  0.00000E+00  9.000E+00
      23     2     1     2     0     0 -3.081165645E+00  9.068392902E+00 -5.099699137E+01  1.052829679E+02  9.160830134E+01  0.00000E+00  9.000E+00
      13     1     3     3     0     0 -3.822356352E+01 -1.942299881E+01 -9.549175702E+00  4.392597877E+01  1.056583668E-01  0.00000E+00  9.000E+00
     -13     1     3     3     0     0  3.514239788E+01  2.849139171E+01 -4.144781567E+01  6.135698915E+01  1.056583668E-01  0.00000E+00  9.000E+00
       4     1     1     2   511     0  3.081165645E+00 -9.068392902E+00  5.037661899E+01  5.127897300E+01  0.000000000E+00  0.00000E+00  9.000E+00
#pdf  -4  4 0.41532078E-02 0.11956369E-01 0.91608301E+02 0.59132440E+00 0.30970010E+00
#rwgt            1           2   111.65051109900980         54217137    18349365           0
</event>
<event>
      6  10013  3.31628E+03  8.81766E+00 -1.00000E+00  2.02231E-01
      -2    -1     0     0     0   501  0.000000000E+00  0.000000000E+00  8.402503353E+02  8.402503353E+02  0.000000000E+00  0.00000E+00  9.000E+00
      21    -1     0     0   501   511  0.000000000E+00  0.000000000E+00 -5.237203976E+00  5.237203976E+00  0.000000000E+00  0.00000E+00  9.000E+00
      23     2     1     2     0     0  8.751347196E+00 -1.079350631E+00  8.307996405E+02  8.357148948E+02  9.007547741E+01  0.00000E+00  9.000E+00
      13     1     3     3     0     0  4.205390494E+01  2.432361364E+01  4.583539677E+02  4.609214032E+02  1.056583668E-01  0.00000E+00  9.000E+00
     -13     1     3     3     0     0 -3.330255774E+01 -2.540296427E+01  3.724456728E+02  3.747934916E+02  1.056583668E-01  0.00000E+00  9.000E+00
      -2     1     1     2     0   511 -8.751347196E+00  1.079350631E+00  4.213490828E+00  9.772644498E+00  0.000000000E+00  0.00000E+00  9.000E+00
#pdf  -2  2 0.12758358E+00 0.37629779E-03 0.90075477E+02 0.60861491E-01 0.21470358E+01
#rwgt            1           4   142.96431606514892         54217137    18349424           0
</event>
<event>
      6  10013  3.31628E+03  5.31120E+00 -1.00000E+00  2.33939E-01
      -3    -1     0     0     0   501  0.000000000E+00  0.000000000E+00  1.781212487E+01  1.781212487E+01  0.000000000E+00  0.00000E+00  9.000E+00
      21    -1     0     0   501   511  0.000000000E+00  0.000000000E+00 -4.279861176E+02  4.279861176E+02  0.000000000E+00  0.00000E+00  9.000E+00
      23     2     1     2     0     0  3.634438606E+00  3.872941872E+00 -9.799231264E+01  1.335713855E+02  9.061243221E+01  0.00000E+00  9.000E+00
      13     1     3     3     0     0  9.256810237E+00  3.271733159E+01 -9.847510758E+01  1.041799899E+02  1.056583668E-01  0.00000E+00  9.000E+00
     -13     1     3     3     0     0 -5.622371631E+00 -2.884438972E+01  4.827949359E-01  2.939139561E+01  1.056583668E-01  0.00000E+00  9.000E+00
      -3     1     1     2     0   511 -3.634438606E+00 -3.872941872E+00 -3.121816801E+02  3.122268569E+02  0.000000000E+00  0.00000E+00  9.000E+00
#pdf  -3  3 0.27321624E-02 0.17782072E-01 0.90612432E+02 0.92243964E+00 0.34614650E+00
#rwgt            1           3   437.53936182806729         54217137    18349512           0
</event>
<event>
      6  10013  3.31628E+03  3.28303E+01 -1.00000E+00  1.50335E-01
      21    -1     0     0   511   501  0.000000000E+00  0.000000000E+00  1.803118794E+01  1.803118794E+01  0.000000000E+00  0.00000E+00  9.000E+00
       5    -1     0     0   501     0  0.000000000E+00  0.000000000E+00 -2.358883675E+02  2.358883675E+02  0.000000000E+00  0.00000E+00  9.000E+00
      23     2     1     2     0     0 -1.974465445E+01 -2.622929032E+01 -1.791131664E+02  2.031364322E+02  9.002808818E+01  0.00000E+00  9.000E+00
      13     1     3     3     0     0 -3.819891504E+01  1.938277734E+01 -5.562729694E+01  7.020866397E+01  1.056583668E-01  0.00000E+00  9.000E+00
     -13     1     3     3     0     0  1.845426059E+01 -4.561206766E+01 -1.234858694E+02  1.329277682E+02  1.056583668E-01  0.00000E+00  9.000E+00
       5     1     1     2   511     0  1.974465445E+01  2.622929032E+01 -3.874401325E+01  5.078312331E+01  0.000000000E+00  0.00000E+00  9.000E+00
#pdf  -5  5 0.17361098E-02 0.27624357E-01 0.90028088E+02 0.64219598E+00 0.92961274E-01
#rwgt            1           1   53.586659108740783         54217137    18349594           0
</event>
<event>
      6  10013  3.31628E+03  5.25201E+00 -1.00000E+00  2.34759E-01
      -3    -1     0     0     0   501  0.000000000E+00  0.000000000E+00  9.680935393E+00  9.680935393E+00  0.000000000E+00  0.00000E+00  9.000E+00
      21    -1     0     0   501   511  0.000000000E+00  0.000000000E+00 -2.791342489E+02  2.791342489E+02  0.000000000E+00  0.00000E+00  9.000E+00
      23     2     1     2     0     0 -3.477532136E+00 -3.935779149E+00 -2.685193530E+02  2.834807799E+02  9.072555366E+01  0.00000E+00  9.000E+00
      13     1     3     3     0     0  2.135951673E+01 -2.136090909E+01 -2.843154817E+01  4.148350862E+01  1.056583668E-01  0.00000E+00  9.000E+00
     -13     1     3     3     0     0 -2.483704887E+01  1.742512994E+01 -2.400878048E+02  2.419972713E+02  1.056583668E-01  0.00000E+00  9.000E+00
      -3     1     1     2     0   511  3.477532136E+00  3.935779149E+00 -9.339605060E-01  5.334404325E+00  0.000000000E+00  0.00000E+00  9.000E+00
#pdf  -3  3 0.11489555E-02 0.42390580E-01 0.90725554E+02 0.13306114E+01 0.17650154E+00
#rwgt            1           3   232.68627712914446         54217137    18349802           0
</event>
<event>
      6  10013  3.31628E+03  1.19167E+01 -1.00000E+00  1.87293E-01
      21    -1     0     0   511   501  0.000000000E+00  0.000000000E+00  2.280518763E+01  2.280518763E+01  0.000000000E+00  0.00000E+00  9.000E+00
       4    -1     0     0   501     0  0.000000000E+00  0.000000000E+00 -5.266271693E+02  5.266271693E+02  0.000000000E+00  0.00000E+00  9.000E+00
      23     2     1     2     0     0 -1.140888473E+01  3.441611307E+00 -5.205281024E+02  5.289115916E+02  9.303740623E+01  0.00000E+00  9.000E+00
      13     1     3     3     0     0 -2.862319271E+01  3.920853687E+01 -3.726526824E+02  3.758013164E+02  1.056583668E-01  0.00000E+00  9.000E+00
     -13     1     3     3     0     0  1.721430798E+01 -3.576692556E+01 -1.478754200E+02  1.531102752E+02  1.056583668E-01  0.00000E+00  9.000E+00
       4     1     1     2   511     0  1.140888473E+01 -3.441611307E+00  1.670612076E+01  2.052076534E+01  0.000000000E+00  0.00000E+00  9.000E+00
#pdf  -4  4 0.63965810E-03 0.80071983E-01 0.93037406E+02 0.14337087E+01 0.45624485E-01
#rwgt            1           2   94.060295349152483         54217137    18349987           0
</event>
<event>
      6  10013  3.31628E+03  2.73004E+00 -1.00000E+00  3.09722E-01
      -2    -1     0     0     0   511  0.000000000E+00  0.000000000E+00  8.752007423E+00  8.752007423E+00  0.000000000E+00  0.00000E+00  9.000E+00
       2    -1     0     0   501     0  0.000000000E+00  0.000000000E+00 -5.036287134E+01  5.036287134E+01  0.000000000E+00  0.00000E+00  9.000E+00
      23     2     1     2     0     0 -2.703317070E+00 -3.810469542E-01 -4.189391018E+01  5.637020480E+01  3.761711259E+01  0.00000E+00  9.000E+00
      13     1     3     3     0     0 -1.745894825E+01  9.188918788E+00 -1.804327638E+01  2.673615696E+01  1.056583668E-01  0.00000E+00  9.000E+00
     -13     1     3     3     0     0  1.475563118E+01 -9.569965742E+00 -2.385063379E+01  2.963404785E+01  1.056583668E-01  0.00000E+00  9.000E+00
      21     1     1     2   501   511  2.703317070E+00  3.810469542E-01  2.830462593E-01  2.744673961E+00  2.140016350E-08  0.00000E+00  9.000E+00
#pdf  -2  2 0.11106401E-02 0.75389501E-02 0.37617113E+02 0.11854789E+01 0.75181704E+00
#rwgt            1           4   1208.5469368636564         54217137    18350092           0
</event>
<event>
      6  10013  3.31628E+03  1.85200E+00 -1.00000E+00  3.79169E-01
      -2    -1     0     0     0   501  0.000000000E+00  0.000000000E+00  6.801243942E-01  6.801243942E-01  0.000000000E+00  0.00000E+00  9.000E+00
       2    -1     0     0   511     0  0.000000000E+00  0.000000000E+00 -3.018845235E+02  3.018845235E+02  0.000000000E+00  0.00000E+00  9.000E+00
      23     2     1     2     0     0  9.559466795E-01 -1.586210893E+00 -2.816858223E+02  2.829584055E+02  2.674185628E+01  0.00000E+00  9.000E+00
      13     1     3     3     0     0 -1.947978019E+00 -5.446159200E+00 -1.299910347E+01  1.422825088E+01  1.056583668E-01  0.00000E+00  9.000E+00
     -13     1     3     3     0     0  2.903924698E+00  3.859948307E+00 -2.686867188E+02  2.687301546E+02  1.056583668E-01  0.00000E+00  9.000E+00
      21     1     1     2   511   501 -9.559466795E-01  1.586210893E+00 -1.951857682E+01  1.960624238E+01  4.768371582E-07  0.00000E+00  9.000E+00
#pdf  -2  2 0.97657106E-04 0.43330385E-01 0.26741856E+02 0.24488017E+01 0.62737727E+00
#rwgt            1           4   1897.1832791041852         54217137    18350257           0
</event>
<event>
      6  10013  3.31628E+03  1.47053E+00 -1.00000E+00  4.51202E-01
      -1    -1     0     0     0   501  0.000000000E+00  0.000000000E+00  4.595199307E+02  4.595199307E+02  0.000000000E+00  0.00000E+00  9.000E+00
       1    -1     0     0   511     0  0.000000000E+00  0.000000000E+00 -3.736412926E+01  3.736412926E+01  0.000000000E+00  0.00000E+00  9.000E+00
      23     2     1     2     0     0  6.697103139E-01  1.309173134E+00  4.547830425E+02  4.642236971E+02  9.313357487E+01  0.00000E+00  9.000E+00
      13     1     3     3     0     0  3.838445589E+01 -2.235874621E+01  2.960393343E+02  2.993536013E+02  1.056583668E-01  0.00000E+00  9.000E+00
     -13     1     3     3     0     0 -3.771474558E+01  2.366791935E+01  1.587437082E+02  1.648700958E+02  1.056583668E-01  0.00000E+00  9.000E+00
      21     1     1     2   511   501 -6.697103139E-01 -1.309173134E+00 -3.262724103E+01  3.266036287E+01  4.768371582E-07  0.00000E+00  9.000E+00
#pdf  -1  1 0.70684016E-01 0.72611369E-03 0.93133575E+02 0.16217114E+00 0.16928919E+01
#rwgt            1           5   308.38542096161530         54217137    18350474           0
</event>
<event>
      6  10013  3.31628E+03  3.62423E+00 -1.00000E+00  2.73874E-01
      21    -1     0     0   501   511  0.000000000E+00  0.000000000E+00  5.855874841E+02  5.855874841E+02  0.000000000E+00  0.00000E+00  9.000E+00
      -2    -1     0     0     0   501  0.000000000E+00  0.000000000E+00 -2.609116662E-01  2.609116662E-01  0.000000000E+00  0.00000E+00  9.000E+00
      23     2     1     2     0     0 -1.029713251E+00  3.474871083E+00  4.666623889E+02  4.671288797E+02  2.055407523E+01  0.00000E+00  9.000E+00
      13     1     3     3     0     0  4.789365001E-02  9.530794782E+00  1.096501863E+02  1.100636764E+02  1.056583668E-01  0.00000E+00  9.000E+00
     -13     1     3     3     0     0 -1.077606901E+00 -6.055923699E+00  3.570122026E+02  3.570652033E+02  1.056583668E-01  0.00000E+00  9.000E+00
      -2     1     1     2     0   511  1.029713251E+00 -3.474871083E+00  1.186641835E+02  1.187195160E+02  0.000000000E+00  0.00000E+00  9.000E+00
#pdf   2 -2 0.70738842E-01 0.35338754E-04 0.20554075E+02 0.62896158E+00 0.30346163E+01
#rwgt            1           7   2694.1819460256720         54217137    18350641           0
</event>
<event>
      6  10013  3.31628E+03  1.10580E+01 -1.00000E+00  1.90785E-01
       2    -1     0     0   501     0  0.000000000E+00  0.000000000E+00  6.017337202E+01  6.017337202E+01  0.000000000E+00  0.00000E+00  9.000E+00
      -2    -1     0     0     0   511  0.000000000E+00  0.000000000E+00 -4.732365169E+01  4.732365169E+01  0.000000000E+00  0.00000E+00  9.000E+00
      23     2     1     2     0     0  1.094632538E+01 -1.567663731E+00  2.225521631E+01  9.298003491E+01  8.959750348E+01  0.00000E+00  9.000E+00
      13     1     3     3     0     0  7.351432732E+00 -3.131873153E+01 -2.240060805E+01  3.920082795E+01  1.056583668E-01  0.00000E+00  9.000E+00
     -13     1     3     3     0     0  3.594892653E+00  2.975106780E+01  4.465582436E+01  5.377920696E+01  1.056583668E-01  0.00000E+00  9.000E+00
      21     1     1     2   501   511 -1.094632538E+01  1.567663731E+00 -9.405495982E+00  1.451698879E+01  2.384185791E-07  0.00000E+00  9.000E+00
#pdf   2 -2 0.87975007E-02 0.53994037E-02 0.89597503E+02 0.78333766E+00 0.70511950E+00
#rwgt            1           7   539.59229678199790         54217137    18350777           0
</event>
<event>
      6  10013  3.31628E+03  4.52530E+00 -1.00000E+00  2.51353E-01
       2    -1     0     0   501     0  0.000000000E+00  0.000000000E+00  9.423601832E+00  9.423601832E+00  0.000000000E+00  0.00000E+00  9.000E+00
      -2    -1     0     0     0   511  0.000000000E+00  0.000000000E+00 -3.747170503E+01  3.747170503E+01  0.000000000E+00  0.00000E+00  9.000E+00
      23     2     1     2     0     0 -3.431077588E+00  2.950608338E+00 -2.340869601E+01  4.041437467E+01  3.263244165E+01  0.00000E+00  9.000E+00
      13     1     3     3     0     0 -6.774111565E+00  4.987449722E+00  6.261301556E+00  1.048705407E+01  1.056583668E-01  0.00000E+00  9.000E+00
     -13     1     3     3     0     0  3.343033977E+00 -2.036841384E+00 -2.966999757E+01  2.992732060E+01  1.056583668E-01  0.00000E+00  9.000E+00
      21     1     1     2   501   511  3.431077588E+00 -2.950608338E+00 -4.639407182E+00  6.480932184E+00  5.960464478E-08  0.00000E+00  9.000E+00
#pdf   2 -2 0.12957295E-02 0.48629307E-02 0.32632442E+02 0.11670335E+01 0.65482150E+00
#rwgt            1           7   641.52239677788384         54217137    18350832           0
</event>
<event>
      6  10013  3.31628E+03  6.04868E+00 -1.00000E+00  2.24850E-01
      21    -1     0     0   511   501  0.000000000E+00  0.000000000E+00  9.168179169E+00  9.168179169E+00  0.000000000E+00  0.00000E+00  9.000E+00
       2    -1     0     0   501     0  0.000000000E+00  0.000000000E+00 -8.424283378E+01  8.424283378E+01  0.000000000E+00  0.00000E+00  9.000E+00
      23     2     1     2     0     0  6.039158758E+00  3.393278693E-01 -8.002469791E+01  8.559503505E+01  2.976526781E+01  0.00000E+00  9.000E+00
      13     1     3     3     0     0 -5.827037467E+00  1.205247958E+01 -4.181265702E+01  4.390359986E+01  1.056583668E-01  0.00000E+00  9.000E+00
     -13     1     3     3     0     0  1.186619623E+01 -1.171315171E+01 -3.821204089E+01  4.169143519E+01  1.056583668E-01  0.00000E+00  9.000E+00
       2     1     1     2   511     0 -6.039158758E+00 -3.393278693E-01  4.950043298E+00  7.815977902E+00  0.000000000E+00  0.00000E+00  9.000E+00
#pdf  -2  2 0.41990509E-03 0.12484804E-01 0.29765268E+02 0.15774595E+01 0.67694949E+00
#rwgt            1           4   857.27333963204967         54217137    18350879           0
</event>
<event>
      6  10013  3.31628E+03  1.33284E+01 -1.00000E+00  1.82308E-01
       3    -1     0     0   501     0  0.000000000E+00  0.000000000E+00  6.699549197E+01  6.699549197E+01  0.000000000E+00  0.00000E+00  9.000E+00
      21    -1     0     0   511   501  0.000000000E+00  0.000000000E+00 -7.912915611E+01  7.912915611E+01  0.000000000E+00  0.00000E+00  9.000E+00
      23     2     1     2     0     0  1.235396766E+01  5.002448019E+00  3.269683609E+01  9.935479930E+01  9.286898326E+01  0.00000E+00  9.000E+00
      13     1     3     3     0     0  8.407399586E+00  4.765687899E+01  2.886339723E+01  5.634686634E+01  1.056583668E-01  0.00000E+00  9.000E+00
     -13     1     3     3     0     0  3.946568074E+00 -4.265443097E+01  3.833438861E+00  4.300793297E+01  1.056583668E-01  0.00000E+00  9.000E+00
       3     1     1     2   511     0 -1.235396766E+01 -5.002448019E+00 -4.483050023E+01  4.676984877E+01  0.000000000E+00  0.00000E+00  9.000E+00
#pdf   3 -3 0.10054795E-01 0.50755308E-02 0.92868983E+02 0.48822197E+00 0.69510629E+00
#rwgt            1           8   427.18935598932302         54217137    18350957           0
</event>
<event>
      6  10013  3.31628E+03  2.20642E+01 -1.00000E+00  1.62885E-01
       2    -1     0     0   501     0  0.000000000E+00  0.000000000E+00  9.902809121E+02  9.902809121E+02  0.000000000E+00  0.00000E+00  9.000E+00
      21    -1     0     0   511   501  0.000000000E+00  0.000000000E+00 -1.172206982E+00  1.172206982E+00  0.000000000E+00  0.00000E+00  9.000E+00
      23     2     1     2     0     0  2.065541891E+01  7.757667744E+00  8.376612150E+02  8.384068189E+02  2.761983178E+01  0.00000E+00  9.000E+00
      13     1     3     3     0     0  1.744060745E+01 -7.717358651E+00  5.250656702E+02  5.254119351E+02  1.056583668E-01  0.00000E+00  9.000E+00
     -13     1     3     3     0     0  3.214811460E+00  1.547502639E+01  3.125955449E+02  3.129948838E+02  1.056583668E-01  0.00000E+00  9.000E+00
       2     1     1     2   511     0 -2.065541891E+01 -7.757667744E+00  1.514474901E+02  1.530463002E+02  0.000000000E+00  0.00000E+00  9.000E+00
#pdf   2 -2 0.10073245E+00 0.44811134E-04 0.27619832E+02 0.62127468E+00 0.31480549E+01
#rwgt            1           7   2378.0589765839641         54217137    18351010           0
</event>
<event>
      6  10013  3.31628E+03  7.89166E+00 -1.00000E+00  2.08381E-01
       3    -1     0     0   501     0  0.000000000E+00  0.000000000E+00  4.983024115E+01  4.983024115E+01  0.000000000E+00  0.00000E+00  9.000E+00
      21    -1     0     0   511   501  0.000000000E+00  0.000000000E+00 -4.963955786E+01  4.963955786E+01  0.000000000E+00  0.00000E+00  9.000E+00
      23     2     1     2     0     0 -5.505426957E+00  5.654076876E+00  3.762459409E+00  9.080747277E+01  9.038563325E+01  0.00000E+00  9.000E+00
      13     1     3     3     0     0 -2.486140374E+01 -2.279421509E+01  3.184972083E+01  4.639053263E+01  1.056583668E-01  0.00000E+00  9.000E+00
     -13     1     3     3     0     0  1.935597678E+01  2.844829197E+01 -2.808726142E+01  4.441694013E+01  1.056583668E-01  0.00000E+00  9.000E+00
       3     1     1     2   511     0  5.505426957E+00 -5.654076876E+00 -3.571776117E+00  8.662326242E+00  0.000000000E+00  0.00000E+00  9.000E+00
#pdf   3 -3 0.72470398E-02 0.66703936E-02 0.90385633E+02 0.58036218E+00 0.60546342E+00
#rwgt            1           8   510.87868085275329         54217137    18351045           0
</event>
<event>
      6  10013  3.31628E+03  1.58310E+01 -1.00000E+00  1.75159E-01
      -2    -1     0     0     0   511  0.000000000E+00  0.000000000E+00  1.513790315E+00  1.513790315E+00  0.000000000E+00  0.00000E+00  9.000E+00
       2    -1     0     0   501     0  0.000000000E+00  0.000000000E+00 -2.104250586E+03  2.104250586E+03  0.000000000E+00  0.00000E+00  9.000E+00
      23     2     1     2     0     0 -1.570438443E+01  1.998501375E+00 -1.944259589E+03  1.946498414E+03  9.197882785E+01  0.00000E+00  9.000E+00
      13     1     3     3     0     0 -6.934552474E-03  4.565761423E+01 -1.125059143E+03  1.125985215E+03  1.056583668E-01  0.00000E+00  9.000E+00
     -13     1     3     3     0     0 -1.569744987E+01 -4.365911285E+01 -8.192004457E+02  8.205131988E+02  1.056583668E-01  0.00000E+00  9.000E+00
      21     1     1     2   501   511  1.570438443E+01 -1.998501375E+00 -1.584772064E+02  1.592659620E+02  1.907348633E-06  0.00000E+00  9.000E+00
#pdf  -2  2 0.16972174E-03 0.29495214E+00 0.91978828E+02 0.28284437E+01 0.35101237E+00
#rwgt            1           4   2096.3363487887236         54217137    18351198           0
</event>
<event>
      6  10013  3.31628E+03  3.23730E+00 -1.00000E+00  2.87053E-01
       2    -1     0     0   501     0  0.000000000E+00  0.000000000E+00  6.249360033E-01  6.249360033E-01  0.000000000E+00  0.00000E+00  9.000E+00
      21    -1     0     0   511   501  0.000000000E+00  0.000000000E+00 -5.430328824E+02  5.430328824E+02  0.000000000E+00  0.00000E+00  9.000E+00
      23     2     1     2     0     0  3.157586496E+00  7.139801757E-01 -3.684801433E+02  3.696998902E+02  2.983140348E+01  0.00000E+00  9.000E+00
      13     1     3     3     0     0  5.035296308E+00 -2.313593571E+00 -1.217778727E+01  1.337970817E+01  1.056583668E-01  0.00000E+00  9.000E+00
     -13     1     3     3     0     0 -1.877709812E+00  3.027573746E+00 -3.563023561E+02  3.563201820E+02  1.056583668E-01  0.00000E+00  9.000E+00
       2     1     1     2   511     0 -3.157586496E+00 -7.139801757E-01 -1.739278030E+02  1.739579282E+02  0.000000000E+00  0.00000E+00  9.000E+00
#pdf   2 -2 0.93279033E-04 0.56451649E-01 0.29831403E+02 0.25892673E+01 0.16405558E+00
#rwgt            1           7   471.07303364013114         54217137    18351283           0
</event>
<event>
      6  10013  3.31628E+03  1.66015E+01 -1.00000E+00  1.73286E-01
       1    -1     0     0   511     0  0.000000000E+00  0.000000000E+00  1.053458057E+01  1.053458057E+01  0.000000000E+00  0.00000E+00  9.000E+00
      -1    -1     0     0     0   501  0.000000000E+00  0.000000000E+00 -3.386836893E+02  3.386836893E+02  0.000000000E+00  0.00000E+00  9.000E+00
      23     2     1     2     0     0 -1.562248327E+01 -5.616638064E+00 -3.112325558E+02  3.255164056E+02  9.391282083E+01  0.00000E+00  9.000E+00
      13     1     3     3     0     0 -3.226096357E+01  3.100525581E+01 -8.836408674E+01  9.904705269E+01  1.056583668E-01  0.00000E+00  9.000E+00
     -13     1     3     3     0     0  1.663848031E+01 -3.662189388E+01 -2.228684691E+02  2.264693529E+02  1.056583668E-01  0.00000E+00  9.000E+00
      21     1     1     2   511   501  1.562248327E+01  5.616638064E+00 -1.691655293E+01  2.370186426E+01  3.371747881E-07  0.00000E+00  9.000E+00
#pdf   1 -1 0.10819820E-02 0.48232860E-01 0.93912821E+02 0.14653494E+01 0.21959097E+00
#rwgt            1           6   532.99506668461663         54217137    18351377           0
</event>
<event>
      6  10013  3.31628E+03  2.12478E+01 -1.00000E+00  1.64189E-01
       2    -1     0     0   511     0  0.000000000E+00  0.000000000E+00  1.840298221E+03  1.840298221E+03  0.000000000E+00  0.00000E+00  9.000E+00
      -2    -1     0     0     0   501  0.000000000E+00  0.000000000E+00 -1.749770990E+00  1.749770990E+00  0.000000000E+00  0.00000E+00  9.000E+00
      23     2     1     2     0     0  2.082828081E+01  4.201586320E+00  1.492331993E+03  1.495180142E+03  8.976306340E+01  0.00000E+00  9.000E+00
      13     1     3     3     0     0 -1.562032577E+00  3.196838234E+00  1.024339893E+00  3.704072943E+00  1.056583668E-01  0.00000E+00  9.000E+00
     -13     1     3     3     0     0  2.239031339E+01  1.004748086E+00  1.491307653E+03  1.491476069E+03  1.056583668E-01  0.00000E+00  9.000E+00
      21     1     1     2   511   501 -2.082828081E+01 -4.201586320E+00  3.462164566E+02  3.468678501E+02  3.814697266E-06  0.00000E+00  9.000E+00
#pdf   2 -2 0.22362885E+00 0.21319685E-03 0.89763063E+02 0.45772477E+00 0.25906971E+01
#rwgt            1           7   1360.6569660276039         54217137    18351413           0
</event>
<event>
      6  10013  3.31628E+03  9.80610E+00 -1.00000E+00  1.96686E-01
       2    -1     0     0   501     0  0.000000000E+00  0.000000000E+00  1.714830051E+03  1.714830051E+03  0.000000000E+00  0.00000E+00  9.000E+00
      21    -1     0     0   511   501  0.000000000E+00  0.000000000E+00 -3.845481742E+00  3.845481742E+00  0.000000000E+00  0.00000E+00  9.000E+00
      23     2     1     2     0     0  5.770072423E-01 -9.789109130E+00  1.704574002E+03  1.706959946E+03  8.968594950E+01  0.00000E+00  9.000E+00
      13     1     3     3     0     0 -3.055549973E+01  2.017024031E+01  4.004045066E+02  4.020749399E+02  1.056583668E-01  0.00000E+00  9.000E+00
     -13     1     3     3     0     0  3.113250697E+01 -2.995934943E+01  1.304169496E+03  1.304885006E+03  1.056583668E-01  0.00000E+00  9.000E+00
       2     1     1     2   511     0 -5.770072423E-01  9.789109130E+00  6.410566879E+00  1.171558631E+01  0.000000000E+00  0.00000E+00  9.000E+00
#pdf   2 -2 0.26087099E+00 0.18244684E-03 0.89685950E+02 0.40275166E+00 0.27404482E+01
#rwgt            1           7   1687.1903899422068         54217137    18351446           0
</event>
<event>
      6  10013  3.31628E+03  2.62018E+00 -1.00000E+00  3.15769E-01
       2    -1     0     0   511     0  0.000000000E+00  0.000000000E+00  5.602199121E+02  5.602199121E+02  0.000000000E+00  0.00000E+00  9.000E+00
      -2    -1     0     0     0   501  0.000000000E+00  0.000000000E+00 -7.217397107E-01  7.217397107E-01  0.000000000E+00  0.00000E+00  9.000E+00
      23     2     1     2     0     0 -2.456914937E+00 -9.104543073E-01  1.480854527E+02  1.495205885E+02  2.049974990E+01  0.00000E+00  9.000E+00
      13     1     3     3     0     0  5.776475121E+00 -2.092348482E+00  1.216978421E+02  1.218528683E+02  1.056583668E-01  0.00000E+00  9.000E+00
     -13     1     3     3     0     0 -8.233390058E+00  1.181894175E+00  2.638761057E+01  2.766772020E+01  1.056583668E-01  0.00000E+00  9.000E+00
      21     1     1     2   511   501  2.456914937E+00  9.104543073E-01  4.114127198E+02  4.114210633E+02  7.629394531E-06  0.00000E+00  9.000E+00
#pdf   2 -2 0.22708036E-01 0.10950422E-03 0.20499750E+02 0.62712741E+00 0.21641081E+01
#rwgt            1           7   1404.0929043681072         54217137    18351524           0
</event>
<event>
      6  10013  3.31628E+03  3.28584E+00 -1.00000E+00  2.85240E-01
      -1    -1     0     0     0   501  0.000000000E+00  0.000000000E+00  2.157967481E+00  2.157967481E+00  0.000000000E+00  0.00000E+00  9.000E+00
       1    -1     0     0   511     0  0.000000000E+00  0.000000000E+00 -3.136669506E+03  3.136669506E+03  0.000000000E+00  0.00000E+00  9.000E+00
      23     2     1     2     0     0 -1.042694982E+00 -3.116010590E+00 -9.713546631E+02  9.756681024E+02  9.158366618E+01  0.00000E+00  9.000E+00
      13     1     3     3     0     0 -2.799185285E+00  9.577959523E+00 -9.542147826E+02  9.542669622E+02  1.056583668E-01  0.00000E+00  9.000E+00
     -13     1     3     3     0     0  1.756490303E+00 -1.269397011E+01 -1.713988051E+01  2.140114023E+01  1.056583668E-01  0.00000E+00  9.000E+00
      21     1     1     2   511   501  1.042694982E+00  3.116010590E+00 -2.163156876E+03  2.163159371E+03  3.051757812E-05  0.00000E+00  9.000E+00
#pdf  -1  1 0.33158968E-03 0.14967468E+00 0.91583666E+02 0.22175431E+01 0.29318007E+00
#rwgt            1           5   1001.5244201908241         54217137    18351633           0
</event>
<event>
      6  10013  3.31628E+03  9.12818E+00 -1.00000E+00  2.00390E-01
       2    -1     0     0   501     0  0.000000000E+00  0.000000000E+00  3.962640868E+03  3.962640868E+03  0.000000000E+00  0.00000E+00  9.000E+00
      21    -1     0     0   511   501  0.000000000E+00  0.000000000E+00 -1.409933411E+00  1.409933411E+00  0.000000000E+00  0.00000E+00  9.000E+00
      23     2     1     2     0     0 -6.951305490E+00  5.916337848E+00  3.897186005E+03  3.899358633E+03  1.298293658E+02  0.00000E+00  9.000E+00
      13     1     3     3     0     0 -4.716039551E+01  4.115374701E+01  1.190197545E+03  1.191842246E+03  1.056583668E-01  0.00000E+00  9.000E+00
     -13     1     3     3     0     0  4.020909003E+01 -3.523740916E+01  2.706988461E+03  2.707516387E+03  1.056583668E-01  0.00000E+00  9.000E+00
       2     1     1     2   511     0  6.951305490E+00 -5.916337848E+00  6.404492939E+01  6.469216863E+01  0.000000000E+00  0.00000E+00  9.000E+00
#pdf   2 -2 0.59825732E+00 0.16671364E-03 0.12982937E+03 0.43416750E-01 0.30624763E+01
#rwgt            1           7   466.83629842107001         54217137    18351766           0
</event>
<event>
      6  10013  3.31628E+03  2.44572E+01 -1.00000E+00  1.59430E-01
      21    -1     0     0   501   511  0.000000000E+00  0.000000000E+00  7.915338595E+00  7.915338595E+00  0.000000000E+00  0.00000E+00  9.000E+00
      -3    -1     0     0     0   501  0.000000000E+00  0.000000000E+00 -4.708484788E+02  4.708484788E+02  0.000000000E+00  0.00000E+00  9.000E+00
      23     2     1     2     0     0  2.100827876E+01  1.252225933E+01 -4.004640034E+02  4.116776951E+02  9.224398000E+01  0.00000E+00  9.000E+00
      13     1     3     3     0     0  3.998674915E+01 -1.216114525E+01 -8.540029539E+01  9.507920476E+01  1.056583668E-01  0.00000E+00  9.000E+00
     -13     1     3     3     0     0 -1.897847039E+01  2.468340459E+01 -3.150637080E+02  3.165984903E+02  1.056583668E-01  0.00000E+00  9.000E+00
      -3     1     1     2     0   511 -2.100827876E+01 -1.252225933E+01 -6.246913680E+01  6.708612232E+01  0.000000000E+00  0.00000E+00  9.000E+00
#pdf   3 -3 0.83378309E-03 0.60386002E-01 0.92243980E+02 0.15176204E+01 0.12278978E+00
#rwgt            1           8   275.76837016453624         54217137    18351862           0
</event>
<event>
      6  10013 -3.31628E+03  2.92981E+00 -1.00000E+00  2.99881E-01
      -2    -1     0     0     0   511  0.000000000E+00  0.000000000E+00  1.973232028E+02  1.973232028E+02  0.000000000E+00  0.00000E+00  9.000E+00
       2    -1     0     0   501     0  0.000000000E+00  0.000000000E+00 -1.327705740E+00  1.327705740E+00  0.000000000E+00  0.00000E+00  9.000E+00
      23     2     1     2     0     0  2.929524178E+00  4.091845261E-02  1.648907969E+02  1.674085309E+02  2.877598899E+01  0.00000E+00  9.000E+00
      13     1     3     3     0     0 -6.748792931E+00  7.059932433E+00  2.265112535E+01  2.466725553E+01  1.056583668E-01  0.00000E+00  9.000E+00
     -13     1     3     3     0     0  9.678317109E+00 -7.019013980E+00  1.422396715E+02  1.427412754E+02  1.056583668E-01  0.00000E+00  9.000E+00
      21     1     1     2   501   511 -2.929524178E+00 -4.091845261E-02  3.110470020E+01  3.124237764E+01  0.000000000E+00  0.00000E+00  9.000E+00
#pdf  -2  2 0.25430021E-01 0.19267577E-03 0.28775989E+02 0.28998293E+00 0.20447710E+01
#rwgt            1           4  -471.29464671957851         54217137    18351947           0
</event>
<event>
      6  10013  3.31628E+03  3.98363E+00 -1.00000E+00  2.63782E-01
       1    -1     0     0   501     0  0.000000000E+00  0.000000000E+00  5.271921165E+02  5.271921165E+02  0.000000000E+00  0.00000E+00  9.000E+00
      -1    -1     0     0     0   511  0.000000000E+00  0.000000000E+00 -5.729386131E+00  5.729386131E+00  0.000000000E+00  0.00000E+00  9.000E+00
      23     2     1     2     0     0  3.869607161E+00 -9.462759504E-01  5.209149523E+02  5.289003886E+02  9.147329774E+01  0.00000E+00  9.000E+00
      13     1     3     3     0     0  2.232096220E+01  9.558976471E+00  3.543511500E+01  4.295646544E+01  1.056583668E-01  0.00000E+00  9.000E+00
     -13     1     3     3     0     0 -1.845135504E+01 -1.050525242E+01  4.854798373E+02  4.859439231E+02  1.056583668E-01  0.00000E+00  9.000E+00
      21     1     1     2   501   511 -3.869607161E+00  9.462759504E-01  5.477781066E-01  4.021114101E+00  1.318142266E-07  0.00000E+00  9.000E+00
#pdf   1 -1 0.80678556E-01 0.61368266E-03 0.91473298E+02 0.39000665E+00 0.17598955E+01
#rwgt            1           6   772.66833632113048         54217137    18352075           0
</event>
<event>
      6  10013  3.31628E+03  2.61488E+01 -1.00000E+00  1.57266E-01
      21    -1     0     0   511   501  0.000000000E+00  0.000000000E+00  2.053500766E+00  2.053500766E+00  0.000000000E+00  0.00000E+00  9.000E+00
       2    -1     0     0   501     0  0.000000000E+00  0.000000000E+00 -5.783743156E+02  5.783743156E+02  0.000000000E+00  0.00000E+00  9.000E+00
      23     2     1     2     0     0 -8.410781711E+00 -2.475921942E+01 -4.316228848E+02  4.333861517E+02  2.900830220E+01  0.00000E+00  9.000E+00
      13     1     3     3     0     0 -1.744409067E+01 -1.665335711E+01 -3.539477324E+02  3.547684301E+02  1.056583668E-01  0.00000E+00  9.000E+00
     -13     1     3     3     0     0  9.033308956E+00 -8.105862311E+00 -7.767515246E+01  7.861772159E+01  1.056583668E-01  0.00000E+00  9.000E+00
       2     1     1     2   511     0  8.410781711E+00  2.475921942E+01 -1.446979300E+02  1.470416647E+02  0.000000000E+00  0.00000E+00  9.000E+00
#pdf  -2  2 0.10074597E-03 0.49423131E-01 0.29008302E+02 0.24886787E+01 0.62824880E+00
#rwgt            1           4   1495.2633280072339         54217137    18352259           0
</event>
<event>
      6  10013  3.31628E+03  4.91488E+01 -1.00000E+00  1.39473E-01
      21    -1     0     0   511   501  0.000000000E+00  0.000000000E+00  8.692617270E+01  8.692617270E+01  0.000000000E+00  0.00000E+00  9.000E+00
       2    -1     0     0   501     0  0.000000000E+00  0.000000000E+00 -2.546718879E+02  2.546718879E+02  0.000000000E+00  0.00000E+00  9.000E+00
      23     2     1     2     0     0 -3.150609359E+01  3.772232524E+01 -2.362818453E+02  2.572605904E+02  8.909709971E+01  0.00000E+00  9.000E+00
      13     1     3     3     0     0  2.352572873E+01  3.098613982E+01 -1.478734099E+02  1.529057138E+02  1.056583668E-01  0.00000E+00  9.000E+00
     -13     1     3     3     0     0 -5.503182231E+01  6.736185413E+00 -8.840843540E+01  1.043548766E+02  1.056583668E-01  0.00000E+00  9.000E+00
       2     1     1     2   511     0  3.150609359E+01 -3.772232524E+01  6.853613012E+01  8.433747024E+01  0.000000000E+00  0.00000E+00  9.000E+00
#pdf  -2  2 0.14130181E-02 0.33242426E-01 0.89097100E+02 0.12570579E+01 0.64761316E+00
#rwgt            1           4   873.36615925842420         54217137    18352303           0
</event>
<event>
      6  10013  3.31628E+03  3.86207E+00 -1.00000E+00  2.67002E-01
       2    -1     0     0   511     0  0.000000000E+00  0.000000000E+00  1.201406638E+03  1.201406638E+03  0.000000000E+00  0.00000E+00  9.000E+00
      -2    -1     0     0     0   501  0.000000000E+00  0.000000000E+00 -2.752185484E-01  2.752185484E-01  0.000000000E+00  0.00000E+00  9.000E+00
      23     2     1     2     0     0 -1.654217747E+00 -3.489859720E+00  1.038861836E+03  1.039366320E+03  3.214837718E+01  0.00000E+00  9.000E+00
      13     1     3     3     0     0 -9.747292839E+00 -1.007594100E+01  9.013928711E+02  9.015018877E+02  1.056583668E-01  0.00000E+00  9.000E+00
     -13     1     3     3     0     0  8.093075092E+00  6.586081280E+00  1.374689647E+02  1.378644325E+02  1.056583668E-01  0.00000E+00  9.000E+00
      21     1     1     2   511   501  1.654217747E+00  3.489859720E+00  1.622695835E+02  1.623155362E+02  0.000000000E+00  0.00000E+00  9.000E+00
#pdf   2 -2 0.15872248E+00 0.38529464E-04 0.32148377E+02 0.57622354E+00 0.34729654E+01
#rwgt            1           7   3241.2342352375472         54217137    18352371           0
</event>
<event>
      6  10013  3.31628E+03  7.93887E+00 -1.00000E+00  2.08041E-01
      -1    -1     0     0     0   501  0.000000000E+00  0.000000000E+00  1.513915770E+01  1.513915770E+01  0.000000000E+00  0.00000E+00  9.000E+00
       1    -1     0     0   511     0  0.000000000E+00  0.000000000E+00 -1.683291332E+02  1.683291332E+02  0.000000000E+00  0.00000E+00  9.000E+00
      23     2     1     2     0     0  7.502073391E+00 -2.597041575E+00 -1.304422818E+02  1.593750699E+02  9.122608340E+01  0.00000E+00  9.000E+00
      13     1     3     3     0     0 -2.804145227E+01 -1.615865710E+01 -1.129646425E+02  1.175093480E+02  1.056583668E-01  0.00000E+00  9.000E+00
     -13     1     3     3     0     0  3.554352567E+01  1.356161553E+01 -1.747763932E+01  4.186572192E+01  1.056583668E-01  0.00000E+00  9.000E+00
      21     1     1     2   511   501 -7.502073391E+00  2.597041575E+00 -2.274769374E+01  2.409322105E+01  3.371747881E-07  0.00000E+00  9.000E+00
#pdf  -1  1 0.22172192E-02 0.22209702E-01 0.91226083E+02 0.10575524E+01 0.54040769E+00
#rwgt            1           5   915.00051599387950         54217137    18352491           0
</event>
<event>
      6  10013  3.31628E+03  9.56297E+00 -1.00000E+00  1.97968E-01
      21    -1     0     0   511   501  0.000000000E+00  0.000000000E+00  1.173728343E+01  1.173728343E+01  0.000000000E+00  0.00000E+00  9.000E+00
       5    -1     0     0   501     0  0.000000000E+00  0.000000000E+00 -3.133230410E+02  3.133230410E+02  0.000000000E+00  0.00000E+00  9.000E+00
      23     2     1     2     0     0 -6.777874367E+00 -6.746175188E+00 -1.721176218E+02  1.952394915E+02  9.166533085E+01  0.00000E+00  9.000E+00
      13     1     3     3     0     0  1.581688693E+01  1.772866076E+01 -4.296277445E+00  2.414432621E+01  1.056583668E-01  0.00000E+00  9.000E+00
     -13     1     3     3     0     0 -2.259476130E+01 -2.447483595E+01 -1.678213443E+02  1.710951653E+02  1.056583668E-01  0.00000E+00  9.000E+00
       5     1     1     2   511     0  6.777874367E+00  6.746175188E+00 -1.294681358E+02  1.298208329E+02  0.000000000E+00  0.00000E+00  9.000E+00
#pdf  -5  5 0.17690048E-02 0.28105707E-01 0.91665331E+02 0.63909651E+00 0.91687855E-01
#rwgt            1           1   78.194774886419651         54217137    18352572           0
</event>
<event>
      6  10013  3.31628E+03  1.44534E+01 -1.00000E+00  1.78867E-01
       2    -1     0     0   511     0  0.000000000E+00  0.000000000E+00  1.939329334E+02  1.939329334E+02  0.000000000E+00  0.00000E+00  9.000E+00
      -2    -1     0     0     0   501  0.000000000E+00  0.000000000E+00 -3.611139247E+00  3.611139247E+00  0.000000000E+00  0.00000E+00  9.000E+00
      23     2     1     2     0     0  1.328974724E+01 -5.681865650E+00  8.140767552E+01  8.767512245E+01  2.916875871E+01  0.00000E+00  9.000E+00
      13     1     3     3     0     0 -2.986812351E+00  9.059167547E+00  3.590419445E+01  3.714985744E+01  1.056583668E-01  0.00000E+00  9.000E+00
     -13     1     3     3     0     0  1.627655959E+01 -1.474103320E+01  4.550348107E+01  5.052526501E+01  1.056583668E-01  0.00000E+00  9.000E+00
      21     1     1     2   511   501 -1.328974724E+01  5.681865650E+00  1.089141186E+02  1.098689502E+02  1.907348633E-06  0.00000E+00  9.000E+00
#pdf   2 -2 0.11654106E-01 0.43198654E-03 0.29168759E+02 0.68204433E+00 0.15543652E+01
#rwgt            1           7   830.32258794534630         54217137    18352995           0
</event>
<event>
      6  10013  3.31628E+03  3.87207E+00 -1.00000E+00  2.66730E-01
      -3    -1     0     0     0   501  0.000000000E+00  0.000000000E+00  1.181941229E+02  1.181941229E+02  0.000000000E+00  0.00000E+00  9.000E+00
       3    -1     0     0   511     0  0.000000000E+00  0.000000000E+00 -1.976982695E+01  1.976982695E+01  0.000000000E+00  0.00000E+00  9.000E+00
      23     2     1     2     0     0 -1.149316084E+00  3.697562847E+00  9.757117509E+01  1.339990143E+02  9.176387492E+01  0.00000E+00  9.000E+00
      13     1     3     3     0     0  2.715588444E+00 -4.203159561E+01  6.600457473E+01  7.829843229E+01  1.056583668E-01  0.00000E+00  9.000E+00
     -13     1     3     3     0     0 -3.864904527E+00  4.572915845E+01  3.156660036E+01  5.570058206E+01  1.056583668E-01  0.00000E+00  9.000E+00
      21     1     1     2   511   501  1.149316084E+00 -3.697562847E+00  8.531208782E-01  3.964935523E+00  8.161702119E-08  0.00000E+00  9.000E+00
#pdf  -3  3 0.17797255E-01 0.27996502E-02 0.91763875E+02 0.34618050E+00 0.91402183E+00
#rwgt            1           3   368.56308273337862         54217137    18353048           0
</event>
<event>
      6  10013  3.31628E+03  1.09038E+01 -1.00000E+00  1.91456E-01
       2    -1     0     0   501     0  0.000000000E+00  0.000000000E+00  7.596469160E+02  7.596469160E+02  0.000000000E+00  0.00000E+00  9.000E+00
      21    -1     0     0   511   501  0.000000000E+00  0.000000000E+00 -8.541115510E+00  8.541115510E+00  0.000000000E+00  0.00000E+00  9.000E+00
      23     2     1     2     0     0  1.040827507E+01  3.249585885E+00  7.550823888E+02  7.565817723E+02  4.634298555E+01  0.00000E+00  9.000E+00
      13     1     3     3     0     0  6.066731265E+00 -2.704675890E+00  1.435409463E+01  1.581681688E+01  1.056583668E-01  0.00000E+00  9.000E+00
     -13     1     3     3     0     0  4.341543802E+00  5.954261775E+00  7.407282942E+02  7.407649554E+02  1.056583668E-01  0.00000E+00  9.000E+00
       2     1     1     2   511     0 -1.040827507E+01 -3.249585885E+00 -3.976588305E+00  1.160625921E+01  0.000000000E+00  0.00000E+00  9.000E+00
#pdf   2 -2 0.11319101E+00 0.11227146E-03 0.46342986E+02 0.60494146E+00 0.27572085E+01
#rwgt            1           7   4071.9525497330483         54217137    18353118           0
</event>
<event>
      6  10013  3.31628E+03  7.31977E+00 -1.00000E+00  2.12778E-01
      21    -1     0     0   501   511  0.000000000E+00  0.000000000E+00  7.670782669E+00  7.670782669E+00  0.000000000E+00  0.00000E+00  9.000E+00
      -1    -1     0     0     0   501  0.000000000E+00  0.000000000E+00 -8.612813853E+02  8.612813853E+02  0.000000000E+00  0.00000E+00  9.000E+00
      23     2     1     2     0     0  4.271952542E+00 -5.943862557E+00 -8.563064300E+02  8.611517471E+02  9.092882022E+01  0.00000E+00  9.000E+00
      13     1     3     3     0     0 -5.183303396E+00  2.068587888E+01 -7.708355186E+02  7.711304559E+02  1.056583668E-01  0.00000E+00  9.000E+00
     -13     1     3     3     0     0  9.455255937E+00 -2.662974144E+01 -8.547091145E+01  9.002129115E+01  1.056583668E-01  0.00000E+00  9.000E+00
      -1     1     1     2     0   511 -4.271952542E+00  5.943862557E+00  2.695827385E+00  7.800420880E+00  0.000000000E+00  0.00000E+00  9.000E+00
#pdf   1 -1 0.37151489E-03 0.13168618E+00 0.90928820E+02 0.21494026E+01 0.79969052E-01
#rwgt            1           6   183.78184470699031         54217137    18353175           0
</event>
<event>
      6  10013  3.31628E+03  2.76792E+01 -1.00000E+00  1.55473E-01
       2    -1     0     0   511     0  0.000000000E+00  0.000000000E+00  1.798984349E+03  1.798984349E+03  0.000000000E+00  0.00000E+00  9.000E+00
      -2    -1     0     0     0   501  0.000000000E+00  0.000000000E+00 -8.854377646E-01  8.854377646E-01  0.000000000E+00  0.00000E+00  9.000E+00
      23     2     1     2     0     0 -2.697987402E+01  6.182777610E+00  4.538062202E+02  4.552921655E+02  2.418119443E+01  0.00000E+00  9.000E+00
      13     1     3     3     0     0 -1.112867275E+01  1.441473614E+01  1.853873518E+02  1.862796643E+02  1.056583668E-01  0.00000E+00  9.000E+00
     -13     1     3     3     0     0 -1.585120127E+01 -8.231958525E+00  2.684188684E+02  2.690125012E+02  1.056583668E-01  0.00000E+00  9.000E+00
      21     1     1     2   511   501  2.697987402E+01 -6.182777610E+00  1.344292691E+03  1.344577621E+03  3.051757812E-05  0.00000E+00  9.000E+00
#pdf   2 -2 0.46008537E-01 0.75202170E-04 0.24181194E+02 0.62635467E+00 0.25675250E+01
#rwgt            1           7   1627.0447531296138         54217137    18353254           0
</event>
<event>
      6  10013 -3.31628E+03  6.28045E+00 -1.00000E+00  2.22358E-01
       4    -1     0     0   501     0  0.000000000E+00  0.000000000E+00  2.291343914E+01  2.291343914E+01  0.000000000E+00  0.00000E+00  9.000E+00
      -4    -1     0     0     0   511  0.000000000E+00  0.000000000E+00 -8.280443856E+00  8.280443856E+00  0.000000000E+00  0.00000E+00  9.000E+00
      23     2     1     2     0     0 -6.246197003E+00 -6.550859032E-01  1.289226404E+01  2.467665507E+01  2.008190028E+01  0.00000E+00  9.000E+00
      13     1     3     3     0     0 -7.348256787E+00 -1.019988565E-01 -3.567945555E+00  8.169986582E+00  1.056583668E-01  0.00000E+00  9.000E+00
     -13     1     3     3     0     0  1.102059784E+00 -5.530870467E-01  1.646020960E+01  1.650666849E+01  1.056583668E-01  0.00000E+00  9.000E+00
      21     1     1     2   501   511  6.246197003E+00  6.550859032E-01  1.740731244E+00  6.517227923E+00  1.210576058E-07  0.00000E+00  9.000E+00
#pdf   4 -4 0.27581776E-02 0.86516846E-03 0.20081900E+02 0.52033663E+00 0.83074749E+00
#rwgt            1           9  -5925.4630526724050         54217137    18353324           0
</event>
<event>
      6  10013  3.31628E+03  2.63500E+01 -1.00000E+00  1.57022E-01
       2    -1     0     0   501     0  0.000000000E+00  0.000000000E+00  5.478852964E+02  5.478852964E+02  0.000000000E+00  0.00000E+00  9.000E+00
      21    -1     0     0   511   501  0.000000000E+00  0.000000000E+00 -6.661182294E+00  6.661182294E+00  0.000000000E+00  0.00000E+00  9.000E+00
      23     2     1     2     0     0 -3.106324720E-01 -2.634812894E+01  4.360601198E+02  4.461315993E+02  9.050223952E+01  0.00000E+00  9.000E+00
      13     1     3     3     0     0  1.685373546E+01  7.677971407E+00  3.652326235E+02  3.657019006E+02  1.056583668E-01  0.00000E+00  9.000E+00
     -13     1     3     3     0     0 -1.716436793E+01 -3.402610034E+01  7.082749628E+01  8.042969865E+01  1.056583668E-01  0.00000E+00  9.000E+00
       2     1     1     2   511     0  3.106324720E-01  2.634812894E+01  1.051639942E+02  1.084148794E+02  0.000000000E+00  0.00000E+00  9.000E+00
#pdf   2 -2 0.65155462E-01 0.74384273E-03 0.90502240E+02 0.62457166E+00 0.16247817E+01
#rwgt            1           7   1139.2655715578419         54217137    18353428           0
</event>
<event>
      6  10013  3.31628E+03  9.22441E+00 -1.00000E+00  1.99839E-01
      21    -1     0     0   511   501  0.000000000E+00  0.000000000E+00  8.014220089E+00  8.014220089E+00  0.000000000E+00  0.00000E+00  9.000E+00
       2    -1     0     0   501     0  0.000000000E+00  0.000000000E+00 -3.302485240E+02  3.302485240E+02  0.000000000E+00  0.00000E+00  9.000E+00
      23     2     1     2     0     0  1.261659481E+00  9.137717973E+00 -3.010357962E+02  3.151442147E+02  9.278057856E+01  0.00000E+00  9.000E+00
      13     1     3     3     0     0  1.161384857E+01 -4.037599285E+01 -1.551330326E+02  1.607214088E+02  1.056583668E-01  0.00000E+00  9.000E+00
     -13     1     3     3     0     0 -1.035218909E+01  4.951371082E+01 -1.459027636E+02  1.544228059E+02  1.056583668E-01  0.00000E+00  9.000E+00
       2     1     1     2   511     0 -1.261659481E+00 -9.137717973E+00 -2.119850770E+01  2.311852943E+01  0.000000000E+00  0.00000E+00  9.000E+00
#pdf  -2  2 0.10799387E-02 0.47165926E-01 0.92780579E+02 0.14091361E+01 0.63497923E+00
#rwgt            1           4   887.66220335725916         54217137    18353493           0
</event>
<event>
      6  10013  3.31628E+03  1.76564E+00 -1.00000E+00  3.90123E-01
       2    -1     0     0   501     0  0.000000000E+00  0.000000000E+00  2.923681333E+01  2.923681333E+01  0.000000000E+00  0.00000E+00  9.000E+00
      -2    -1     0     0     0   511  0.000000000E+00  0.000000000E+00 -7.539922912E+01  7.539922912E+01  0.000000000E+00  0.00000E+00  9.000E+00
      23     2     1     2     0     0 -1.754220593E+00  2.004606328E-01 -4.393814714E+01  1.017961753E+02  9.180840407E+01  0.00000E+00  9.000E+00
      13     1     3     3     0     0 -1.417333219E+01  1.108947801E+01 -6.926201692E+01  7.156184751E+01  1.056583668E-01  0.00000E+00  9.000E+00
     -13     1     3     3     0     0  1.241911160E+01 -1.088901737E+01  2.532386978E+01  3.023432779E+01  1.056583668E-01  0.00000E+00  9.000E+00
      21     1     1     2   501   511  1.754220593E+00 -2.004606328E-01 -2.224268652E+00  2.839867143E+00  2.980232239E-08  0.00000E+00  9.000E+00
#pdf   2 -2 0.44497947E-02 0.11208260E-01 0.91808404E+02 0.93592773E+00 0.49190621E+00
#rwgt            1           7   361.55330207984963         54217137    18353602           0
</event>
<event>
      6  10013  3.31628E+03  4.86045E+00 -1.00000E+00  2.44912E-01
      -2    -1     0     0     0   511  0.000000000E+00  0.000000000E+00  5.588704266E+02  5.588704266E+02  0.000000000E+00  0.00000E+00  9.000E+00
       2    -1     0     0   501     0  0.000000000E+00  0.000000000E+00 -5.075856404E+00  5.075856404E+00  0.000000000E+00  0.00000E+00  9.000E+00
      23     2     1     2     0     0 -1.368153633E+00 -4.663916042E+00  4.084831081E+02  4.185535563E+02  9.113180534E+01  0.00000E+00  9.000E+00
      13     1     3     3     0     0 -1.782351953E+01 -3.007528362E+01  3.578962648E+02  3.595997053E+02  1.056583668E-01  0.00000E+00  9.000E+00
     -13     1     3     3     0     0  1.645536590E+01  2.541136758E+01  5.058684323E+01  5.895385094E+01  1.056583668E-01  0.00000E+00  9.000E+00
      21     1     1     2   501   511  1.368153633E+00  4.663916042E+00  1.453114621E+02  1.453927267E+02  1.907348633E-06  0.00000E+00  9.000E+00
#pdf  -2  2 0.63527915E-01 0.77355044E-03 0.91131805E+02 0.14488898E+00 0.16669674E+01
#rwgt            1           4   221.38124545221567         54217137    18353886           0
</event>
<event>
      6  10013  3.31628E+03  5.96486E+00 -1.00000E+00  2.25790E-01
      -2    -1     0     0     0   501  0.000000000E+00  0.000000000E+00  1.454287283E+01  1.454287283E+01  0.000000000E+00  0.00000E+00  9.000E+00
       2    -1     0     0   511     0  0.000000000E+00  0.000000000E+00 -1.407512983E+01  1.407512983E+01  0.000000000E+00  0.00000E+00  9.000E+00
      23     2     1     2     0     0 -5.651713980E+00  1.907269098E+00  4.196649830E-01  2.265294961E+01  2.184949567E+01  0.00000E+00  9.000E+00
      13     1     3     3     0     0 -7.243079993E+00 -8.625203545E+00  3.072431738E+00  1.167507364E+01  1.056583668E-01  0.00000E+00  9.000E+00
     -13     1     3     3     0     0  1.591366014E+00  1.053247264E+01 -2.652766755E+00  1.097787597E+01  1.056583668E-01  0.00000E+00  9.000E+00
      21     1     1     2   511   501  5.651713980E+00 -1.907269098E+00  4.807801818E-02  5.965053044E+00  7.891275941E-08  0.00000E+00  9.000E+00
#pdf  -2  2 0.17121612E-02 0.16498766E-02 0.21849496E+02 0.90578967E+00 0.10030530E+01
#rwgt            1           4   647.04420822924908         54217137    18354153           0
</event>
<event>
      6  10013  3.31628E+03  3.34331E+00 -1.00000E+00  2.83157E-01
      21    -1     0     0   511   501  0.000000000E+00  0.000000000E+00  2.456971886E+01  2.456971886E+01  0.000000000E+00  0.00000E+00  9.000E+00
       4    -1     0     0   501     0  0.000000000E+00  0.000000000E+00 -2.091430506E+01  2.091430506E+01  0.000000000E+00  0.00000E+00  9.000E+00
      23     2     1     2     0     0 -3.241198114E+00  8.199853429E-01  3.060497441E+00  4.208819314E+01  4.184341784E+01  0.00000E+00  9.000E+00
      13     1     3     3     0     0  2.849495760E-01 -1.697947464E+01 -1.002133422E+01  1.971857141E+01  1.056583668E-01  0.00000E+00  9.000E+00
     -13     1     3     3     0     0 -3.526147690E+00  1.779945998E+01  1.308183166E+01  2.236962173E+01  1.056583668E-01  0.00000E+00  9.000E+00
       4     1     1     2   511     0  3.241198114E+00 -8.199853429E-01  5.949163677E-01  3.395830777E+00  0.000000000E+00  0.00000E+00  9.000E+00
#pdf  -4  4 0.34619431E-02 0.29925931E-02 0.41843418E+02 0.56355517E+00 0.60494198E+00
#rwgt            1           2   391.38916287661635         54217137    18354223           0
</event>
<event>
      6  10013  3.31628E+03  1.13030E+01 -1.00000E+00  1.89748E-01
      -5    -1     0     0     0   501  0.000000000E+00  0.000000000E+00  1.294999750E+00  1.294999750E+00  0.000000000E+00  0.00000E+00  9.000E+00
      21    -1     0     0   501   511  0.000000000E+00  0.000000000E+00 -3.291867774E+03  3.291867774E+03  0.000000000E+00  0.00000E+00  9.000E+00
      23     2     1     2     0     0 -1.126810601E+01  8.872380312E-01 -1.652454835E+03  1.655005840E+03  9.115695585E+01  0.00000E+00  9.000E+00
      13     1     3     3     0     0 -1.784949182E+01 -1.054359534E+01 -1.617688444E+03  1.617821277E+03  1.056583668E-01  0.00000E+00  9.000E+00
     -13     1     3     3     0     0  6.581385810E+00  1.143083338E+01 -3.476639076E+01  3.718456240E+01  1.056583668E-01  0.00000E+00  9.000E+00
      -5     1     1     2     0   511  1.126810601E+01 -8.872380312E-01 -1.638117940E+03  1.638156934E+03  0.000000000E+00  0.00000E+00  9.000E+00
#pdf  -5  5 0.19473982E-03 0.25248650E+00 0.91156956E+02 0.17838435E+01 0.23685351E-02
#rwgt            1           1   9.7222917040945482         54217137    18354268           0
</event>
<event>
      6  10013 -3.31628E+03  5.38987E+00 -1.00000E+00  2.32873E-01
      21    -1     0     0   501   511  0.000000000E+00  0.000000000E+00  1.712574671E+01  1.712574671E+01  0.000000000E+00  0.00000E+00  9.000E+00
      -1    -1     0     0     0   501  0.000000000E+00  0.000000000E+00 -2.102665219E+02  2.102665219E+02  0.000000000E+00  0.00000E+00  9.000E+00
      23     2     1     2     0     0  4.073852452E+00  3.529081501E+00 -1.989830654E+02  2.194434923E+02  9.236955840E+01  0.00000E+00  9.000E+00
      13     1     3     3     0     0 -3.253632679E+01  1.401011219E+01 -3.060934359E+01  4.681707897E+01  1.056583668E-01  0.00000E+00  9.000E+00
     -13     1     3     3     0     0  3.661017924E+01 -1.048103069E+01 -1.683737218E+02  1.726264133E+02  1.056583668E-01  0.00000E+00  9.000E+00
      -1     1     1     2     0   511 -4.073852452E+00 -3.529081501E+00  5.842290184E+00  7.948776298E+00  0.000000000E+00  0.00000E+00  9.000E+00
#pdf   1 -1 0.15712064E-02 0.32132002E-01 0.92369558E+02 0.12758404E+01 0.28771686E+00
#rwgt            1           6  -241.68822890482679         54217137    18354608           0
</event>
<event>
      6  10013  3.31628E+03  8.95562E+00 -1.00000E+00  2.01401E-01
       2    -1     0     0   501     0  0.000000000E+00  0.000000000E+00  6.652487563E+02  6.652487563E+02  0.000000000E+00  0.00000E+00  9.000E+00
      21    -1     0     0   511   501  0.000000000E+00  0.000000000E+00 -1.535395121E+01  1.535395121E+01  0.000000000E+00  0.00000E+00  9.000E+00
      23     2     1     2     0     0  9.691473294E-01 -8.903025074E+00  6.612084273E+02  6.661735305E+02  8.068695844E+01  0.00000E+00  9.000E+00
      13     1     3     3     0     0 -2.525111420E+00 -3.238847212E+01  1.164159355E+02  1.208638511E+02  1.056583668E-01  0.00000E+00  9.000E+00
     -13     1     3     3     0     0  3.494258749E+00  2.348544704E+01  5.447924919E+02  5.453096794E+02  1.056583668E-01  0.00000E+00  9.000E+00
       2     1     1     2   511     0 -9.691473294E-01  8.903025074E+00 -1.131362222E+01  1.442917703E+01  0.000000000E+00  0.00000E+00  9.000E+00
#pdf   2 -2 0.10148312E+00 0.37959998E-03 0.80686958E+02 0.60319549E+00 0.20515070E+01
#rwgt            1           7   2195.0889918270195         54217137    18354743           0
</event>
<event>
      6  10013  3.31628E+03  3.57577E+01 -1.00000E+00  1.47893E-01
      21    -1     0     0   511   501  0.000000000E+00  0.000000000E+00  3.800169592E+00  3.800169592E+00  0.000000000E+00  0.00000E+00  9.000E+00
       1    -1     0     0   501     0  0.000000000E+00  0.000000000E+00 -1.182480232E+03  1.182480232E+03  0.000000000E+00  0.00000E+00  9.000E+00
      23     2     1     2     0     0 -6.941931450E+00 -3.507733208E+01 -9.073773012E+02  9.126313602E+02  9.101551058E+01  0.00000E+00  9.000E+00
      13     1     3     3     0     0 -3.299578944E+01 -5.527115133E+01 -6.402735320E+02  6.435012270E+02  1.056583668E-01  0.00000E+00  9.000E+00
     -13     1     3     3     0     0  2.605385800E+01  2.019381925E+01 -2.671037693E+02  2.691301332E+02  1.056583668E-01  0.00000E+00  9.000E+00
       1     1     1     2   511     0  6.941931450E+00  3.507733208E+01 -2.713027607E+02  2.736490409E+02  0.000000000E+00  0.00000E+00  9.000E+00
#pdf  -1  1 0.37616883E-03 0.13030507E+00 0.91015511E+02 0.21137896E+01 0.31901204E+00
#rwgt            1           5   1026.1869847448224         54217137    18354841           0
</event>
<event>
      6  10013  3.31628E+03  6.37102E+00 -1.00000E+00  2.21424E-01
       2    -1     0     0   501     0  0.000000000E+00  0.000000000E+00  7.453304567E+02  7.453304567E+02  0.000000000E+00  0.00000E+00  9.000E+00
      21    -1     0     0   511   501  0.000000000E+00  0.000000000E+00 -3.269492350E+00  3.269492350E+00  0.000000000E+00  0.00000E+00  9.000E+00
      23     2     1     2     0     0  6.299438169E+00 -9.523531796E-01  7.095028657E+02  7.154243603E+02  9.163574111E+01  0.00000E+00  9.000E+00
      13     1     3     3     0     0 -3.990025130E+01  3.128837369E-01  4.560386345E+02  4.577809250E+02  1.056583668E-01  0.00000E+00  9.000E+00
     -13     1     3     3     0     0  4.619968947E+01 -1.265236917E+00  2.534642312E+02  2.576434353E+02  1.056583668E-01  0.00000E+00  9.000E+00
       2     1     1     2   511     0 -6.299438169E+00  9.523531796E-01  3.255809866E+01  3.317558871E+01  0.000000000E+00  0.00000E+00  9.000E+00
#pdf   2 -2 0.10934583E+00 0.45440267E-03 0.91635741E+02 0.59474846E+00 0.19663614E+01
#rwgt            1           7   1599.0375581558292         54217137    18354886           0
</event>
<event>
      6  10013  3.31628E+03  1.34996E+00 -1.00000E+00  4.83516E-01
      -2    -1     0     0     0   501  0.000000000E+00  0.000000000E+00  3.126562842E+01  3.126562842E+01  0.000000000E+00  0.00000E+00  9.000E+00
       2    -1     0     0   511     0  0.000000000E+00  0.000000000E+00 -6.639824803E+01  6.639824803E+01  0.000000000E+00  0.00000E+00  9.000E+00
      23     2     1     2     0     0 -1.349161495E+00  4.651503706E-02 -3.441857437E+01  9.613670226E+01  8.975413561E+01  0.00000E+00  9.000E+00
      13     1     3     3     0     0 -2.180963432E+00 -1.073188633E+01  2.941837323E+01  3.139079217E+01  1.056583668E-01  0.00000E+00  9.000E+00
     -13     1     3     3     0     0  8.318019375E-01  1.077840137E+01 -6.383694760E+01  6.474591009E+01  1.056583668E-01  0.00000E+00  9.000E+00
      21     1     1     2   511   501  1.349161495E+00 -4.651503706E-02 -7.140452408E-01  1.527174186E+00  3.332000937E-08  0.00000E+00  9.000E+00
#pdf  -2  2 0.47470114E-02 0.10041578E-01 0.89754136E+02 0.74850328E+00 0.76140225E+00
#rwgt            1           4   472.38150322825618         54217137    18354979           0
</event>
<event>
      6  10013  3.31628E+03  1.47605E+01 -1.00000E+00  1.77997E-01
       2    -1     0     0   501     0  0.000000000E+00  0.000000000E+00  7.907452764E+02  7.907452764E+02  0.000000000E+00  0.00000E+00  9.000E+00
      21    -1     0     0   511   501  0.000000000E+00  0.000000000E+00 -4.140765569E+00  4.140765569E+00  0.000000000E+00  0.00000E+00  9.000E+00
      23     2     1     2     0     0 -1.373605220E+01 -5.403163541E+00  7.480173563E+02  7.535721000E+02  9.012808252E+01  0.00000E+00  9.000E+00
      13     1     3     3     0     0 -6.360159901E-01  9.161021633E+00  7.158536163E+02  7.159125225E+02  1.056583668E-01  0.00000E+00  9.000E+00
     -13     1     3     3     0     0 -1.310003621E+01 -1.456418517E+01  3.216374008E+01  3.765957751E+01  1.056583668E-01  0.00000E+00  9.000E+00
       2     1     1     2   511     0  1.373605220E+01  5.403163541E+00  3.858715446E+01  4.131394190E+01  0.000000000E+00  0.00000E+00  9.000E+00
#pdf   2 -2 0.11398833E+00 0.42167047E-03 0.90128083E+02 0.59107954E+00 0.20161410E+01
#rwgt            1           7   1548.0153260303200         54217137    18355526           0
</event>
<event>
      6  10013  3.31628E+03  6.70604E+00 -1.00000E+00  2.18148E-01
      21    -1     0     0   501   511  0.000000000E+00  0.000000000E+00  7.910176413E-01  7.910176413E-01  0.000000000E+00  0.00000E+00  9.000E+00
      -2    -1     0     0     0   501  0.000000000E+00  0.000000000E+00 -4.247086081E+02  4.247086081E+02  0.000000000E+00  0.00000E+00  9.000E+00
      23     2     1     2     0     0  5.450992796E+00 -3.906101731E+00 -3.969860675E+02  3.977457452E+02  2.363829787E+01  0.00000E+00  9.000E+00
      13     1     3     3     0     0 -1.987101197E+00  6.176265589E+00 -3.866773244E+01  3.920841139E+01  1.056583668E-01  0.00000E+00  9.000E+00
     -13     1     3     3     0     0  7.438093993E+00 -1.008236732E+01 -3.583183350E+02  3.585373338E+02  1.056583668E-01  0.00000E+00  9.000E+00
      -2     1     1     2     0   511 -5.450992796E+00  3.906101731E+00 -2.693152298E+01  2.775388050E+01  0.000000000E+00  0.00000E+00  9.000E+00
#pdf   2 -2 0.56218241E-04 0.58812338E-01 0.23638298E+02 0.27948092E+01 0.15845298E+00
#rwgt            1           7   648.70773239969617         54217137    18355619           0
</event>
<event>
      6  10013  3.31628E+03  4.51862E+00 -1.00000E+00  2.51490E-01
       1    -1     0     0   501     0  0.000000000E+00  0.000000000E+00  5.674105404E+02  5.674105404E+02  0.000000000E+00  0.00000E+00  9.000E+00
      21    -1     0     0   511   501  0.000000000E+00  0.000000000E+00 -7.453305713E+00  7.453305713E+00  0.000000000E+00  0.00000E+00  9.000E+00
      23     2     1     2     0     0  2.686397996E+00 -3.633342295E+00  5.624537659E+02  5.697014263E+02  9.047131310E+01  0.00000E+00  9.000E+00
      13     1     3     3     0     0 -4.359124229E+01 -1.415353175E+00  2.390969069E+02  2.430422631E+02  1.056583668E-01  0.00000E+00  9.000E+00
     -13     1     3     3     0     0  4.627764029E+01 -2.217989120E+00  3.233568590E+02  3.266591632E+02  1.056583668E-01  0.00000E+00  9.000E+00
       1     1     1     2   511     0 -2.686397996E+00  3.633342295E+00 -2.496531170E+00  5.162419811E+00  0.000000000E+00  0.00000E+00  9.000E+00
#pdf   1 -1 0.86980441E-01 0.55681827E-03 0.90471313E+02 0.38049939E+00 0.18224535E+01
#rwgt            1           6   926.34613387729257         54217137    18355747           0
</event>
<event>
      6  10013  3.31628E+03  8.92411E+01 -1.00000E+00  1.26069E-01
      -1    -1     0     0     0   501  0.000000000E+00  0.000000000E+00  5.766703829E+01  5.766703829E+01  0.000000000E+00  0.00000E+00  9.000E+00
      21    -1     0     0   501   511  0.000000000E+00  0.000000000E+00 -2.856280225E+02  2.856280225E+02  0.000000000E+00  0.00000E+00  9.000E+00
      23     2     1     2     0     0 -4.369839486E+00 -8.913407568E+01 -3.762183428E+01  1.330738180E+02  9.126477780E+01  0.00000E+00  9.000E+00
      13     1     3     3     0     0 -1.797561558E+01 -1.040073456E+02 -3.978852099E+01  1.127997706E+02  1.056583668E-01  0.00000E+00  9.000E+00
     -13     1     3     3     0     0  1.360577610E+01  1.487326988E+01  2.166686707E+00  2.027404733E+01  1.056583668E-01  0.00000E+00  9.000E+00
      -1     1     1     2     0   511  4.369839486E+00  8.913407568E+01 -1.903391499E+02  2.102212428E+02  0.000000000E+00  0.00000E+00  9.000E+00
#pdf  -1  1 0.52497799E-02 0.93881193E-02 0.91264778E+02 0.73034902E+00 0.68878800E+00
#rwgt            1           5   675.33195156221802         54217137    18355817           0
</event>
<event>
      6  10013  3.31628E+03  9.49075E+00 -1.00000E+00  1.98358E-01
       1    -1     0     0   501     0  0.000000000E+00  0.000000000E+00  7.447321264E+00  7.447321264E+00  0.000000000E+00  0.00000E+00  9.000E+00
      -1    -1     0     0     0   511  0.000000000E+00  0.000000000E+00 -3.515898374E+02  3.515898374E+02  0.000000000E+00  0.00000E+00  9.000E+00
      23     2     1     2     0     0  8.653123439E+00 -3.898432407E+00 -3.000686349E+02  3.139530004E+02  9.184348904E+01  0.00000E+00  9.000E+00
      13     1     3     3     0     0 -9.050490058E+00  1.162380451E+01 -2.862977216E+02  2.866765089E+02  1.056583668E-01  0.00000E+00  9.000E+00
     -13     1     3     3     0     0  1.770361350E+01 -1.552223692E+01 -1.377091327E+01  2.727649145E+01  1.056583668E-01  0.00000E+00  9.000E+00
      21     1     1     2   501   511 -8.653123439E+00  3.898432407E+00 -4.407388118E+01  4.508415823E+01  4.768371582E-07  0.00000E+00  9.000E+00
#pdf   1 -1 0.10623710E-02 0.46982253E-01 0.91843489E+02 0.14700500E+01 0.22378985E+00
#rwgt            1           6   296.07229515991895         54217137    18355842           0
</event>
<event>
      6  10013  3.31628E+03  8.69633E+00 -1.00000E+00  2.02979E-01
       3    -1     0     0   501     0  0.000000000E+00  0.000000000E+00  4.242809237E+02  4.242809237E+02  0.000000000E+00  0.00000E+00  9.000E+00
      21    -1     0     0   511   501  0.000000000E+00  0.000000000E+00 -6.476662868E+00  6.476662868E+00  0.000000000E+00  0.00000E+00  9.000E+00
      23     2     1     2     0     0 -8.692076921E+00  2.719150575E-01  3.952373466E+02  4.065730510E+02  9.493924150E+01  0.00000E+00  9.000E+00
      13     1     3     3     0     0 -3.503049542E+01  1.944060401E+01  3.407008100E+02  3.430482850E+02  1.056583668E-01  0.00000E+00  9.000E+00
     -13     1     3     3     0     0  2.633841850E+01 -1.916868895E+01  5.453653650E+01  6.352476605E+01  1.056583668E-01  0.00000E+00  9.000E+00
       3     1     1     2   511     0  8.692076921E+00 -2.719150575E-01  2.256691427E+01  2.418453553E+01  0.000000000E+00  0.00000E+00  9.000E+00
#pdf   3 -3 0.61420591E-01 0.86834203E-03 0.94939241E+02 0.12041507E+00 0.15007578E+01
#rwgt            1           8   293.21216473723234         54217137    18355918           0
</event>
<event>
      6  10013  3.31628E+03  3.09284E+01 -1.00000E+00  1.52092E-01
       2    -1     0     0   501     0  0.000000000E+00  0.000000000E+00  1.581038053E+03  1.581038053E+03  0.000000000E+00  0.00000E+00  9.000E+00
      -2    -1     0     0     0   511  0.000000000E+00  0.000000000E+00 -2.862576934E+00  2.862576934E+00  0.000000000E+00  0.00000E+00  9.000E+00
      23     2     1     2     0     0 -2.681580293E+01  1.541036971E+01  1.374899307E+03  1.378285048E+03  9.146038103E+01  0.00000E+00  9.000E+00
      13     1     3     3     0     0  3.289287194E+01 -5.365712993E+00  4.728614482E+02  4.740344843E+02  1.056583668E-01  0.00000E+00  9.000E+00
     -13     1     3     3     0     0 -5.970867487E+01  2.077608271E+01  9.020378589E+02  9.042505635E+02  1.056583668E-01  0.00000E+00  9.000E+00
      21     1     1     2   501   511  2.681580293E+01 -1.541036971E+01  2.032761685E+02  2.056155818E+02  2.697398305E-06  0.00000E+00  9.000E+00
#pdf   2 -2 0.20062288E+00 0.24671687E-03 0.91460381E+02 0.48972699E+00 0.24663621E+01
#rwgt            1           7   1941.4623269827475         54217137    18355991           0
</event>
<event>
      6  10013  3.31628E+03  4.09267E+00 -1.00000E+00  2.61042E-01
      -1    -1     0     0     0   511  0.000000000E+00  0.000000000E+00  2.224290008E+00  2.224290008E+00  0.000000000E+00  0.00000E+00  9.000E+00
       1    -1     0     0   501     0  0.000000000E+00  0.000000000E+00 -2.259638545E+03  2.259638545E+03  0.000000000E+00  0.00000E+00  9.000E+00
      23     2     1     2     0     0 -4.048573540E+00  5.991651517E-01 -2.256895804E+03  2.257737458E+03  6.150617735E+01  0.00000E+00  9.000E+00
      13     1     3     3     0     0  1.089320249E+01  2.064958481E+01 -4.047064229E+02  4.053792880E+02  1.056583668E-01  0.00000E+00  9.000E+00
     -13     1     3     3     0     0 -1.494177603E+01 -2.005041966E+01 -1.852189381E+03  1.852358170E+03  1.056583668E-01  0.00000E+00  9.000E+00
      21     1     1     2   501   511  4.048573540E+00 -5.991651517E-01 -5.184515142E-01  4.125377384E+00  7.613458092E-07  0.00000E+00  9.000E+00
#pdf  -1  1 0.64599771E-04 0.34651320E+00 0.61506177E+02 0.35851385E+01 0.10250592E+00
#rwgt            1           5   3390.7828484154852         54217137    18356020           0
</event>
<event>
      6  10013  3.31628E+03  1.55305E+01 -1.00000E+00  1.75927E-01
      21    -1     0     0   501   511  0.000000000E+00  0.000000000E+00  5.601754145E+00  5.601754145E+00  0.000000000E+00  0.00000E+00  9.000E+00
      -1    -1     0     0     0   501  0.000000000E+00  0.000000000E+00 -4.630215360E+02  4.630215360E+02  0.000000000E+00  0.00000E+00  9.000E+00
      23     2     1     2     0     0  7.992770161E+00  1.331582627E+01 -4.411552135E+02  4.461348089E+02  6.463087286E+01  0.00000E+00  9.000E+00
      13     1     3     3     0     0 -1.345844427E+01  2.979854558E+01 -3.348044135E+02  3.363972198E+02  1.056583668E-01  0.00000E+00  9.000E+00
     -13     1     3     3     0     0  2.145121443E+01 -1.648271931E+01 -1.063508000E+02  1.097375891E+02  1.056583668E-01  0.00000E+00  9.000E+00
      -1     1     1     2     0   511 -7.992770161E+00 -1.331582627E+01 -1.626456836E+01  2.248848123E+01  0.000000000E+00  0.00000E+00  9.000E+00
#pdf   1 -1 0.37244393E-03 0.66363982E-01 0.64630873E+02 0.20038205E+01 0.17288495E+00
#rwgt            1           6   551.08971296850950         54217137    18356130           0
</event>
<event>
      6  10013  3.31628E+03  7.40743E+00 -1.00000E+00  2.12070E-01
      -2    -1     0     0     0   501  0.000000000E+00  0.000000000E+00  4.196286083E+00  4.196286083E+00  0.000000000E+00  0.00000E+00  9.000E+00
       2    -1     0     0   511     0  0.000000000E+00  0.000000000E+00 -6.793344160E+02  6.793344160E+02  0.000000000E+00  0.00000E+00  9.000E+00
      23     2     1     2     0     0 -1.129062913E+00  7.320873574E+00 -5.184115557E+02  5.266291755E+02  9.237357549E+01  0.00000E+00  9.000E+00
      13     1     3     3     0     0  3.177760758E+00 -6.010122732E+00 -5.104892110E+02  5.105344900E+02  1.056583668E-01  0.00000E+00  9.000E+00
     -13     1     3     3     0     0 -4.306823671E+00  1.333099631E+01 -7.922344643E+00  1.609468549E+01  1.056583668E-01  0.00000E+00  9.000E+00
      21     1     1     2   511   501  1.129062913E+00 -7.320873574E+00 -1.567265743E+02  1.569015266E+02  2.697398305E-06  0.00000E+00  9.000E+00
#pdf  -2  2 0.63010194E-03 0.80130525E-01 0.92373575E+02 0.17386805E+01 0.61582690E+00
#rwgt            1           4   2788.9572058788413         54217137    18356251           0
</event>
<event>
      6  10013  3.31628E+03  2.85934E+01 -1.00000E+00  1.54467E-01
       1    -1     0     0   511     0  0.000000000E+00  0.000000000E+00  3.613920579E+02  3.613920579E+02  0.000000000E+00  0.00000E+00  9.000E+00
      -1    -1     0     0     0   501  0.000000000E+00  0.000000000E+00 -1.113856892E+01  1.113856892E+01  0.000000000E+00  0.00000E+00  9.000E+00
      23     2     1     2     0     0  2.267848453E+01 -1.741455086E+01  2.377587531E+02  2.564588997E+02  9.178432495E+01  0.00000E+00  9.000E+00
      13     1     3     3     0     0 -3.497712108E+01  2.330389562E+00  8.031562573E+01  8.763241760E+01  1.056583668E-01  0.00000E+00  9.000E+00
     -13     1     3     3     0     0  5.765560561E+01 -1.974494042E+01  1.574431274E+02  1.688264821E+02  1.056583668E-01  0.00000E+00  9.000E+00
      21     1     1     2   511   501 -2.267848453E+01  1.741455086E+01  1.124947358E+02  1.160717271E+02  0.000000000E+00  0.00000E+00  9.000E+00
#pdf   1 -1 0.36296252E-01 0.13733731E-02 0.91784325E+02 0.47973230E+00 0.12860403E+01
#rwgt            1           6   724.50929098190863         54217137    18356400           0
</event>
<event>
      6  10013  3.31628E+03  4.03459E+00 -1.00000E+00  2.62485E-01
       2    -1     0     0   511     0  0.000000000E+00  0.000000000E+00  2.973054123E+02  2.973054123E+02  0.000000000E+00  0.00000E+00  9.000E+00
      -2    -1     0     0     0   501  0.000000000E+00  0.000000000E+00 -1.055803428E+00  1.055803428E+00  0.000000000E+00  0.00000E+00  9.000E+00
      23     2     1     2     0     0  3.881497447E+00 -1.100873626E+00  1.860197500E+02  1.880575452E+02  2.731327463E+01  0.00000E+00  9.000E+00
      13     1     3     3     0     0  1.034429216E+00 -1.075765508E+01  3.337953377E+01  3.508563274E+01  1.056583668E-01  0.00000E+00  9.000E+00
     -13     1     3     3     0     0  2.847068231E+00  9.656781455E+00  1.526402162E+02  1.529719125E+02  1.056583668E-01  0.00000E+00  9.000E+00
      21     1     1     2   511   501 -3.881497447E+00  1.100873626E+00  1.102298588E+02  1.103036705E+02  2.336015456E-06  0.00000E+00  9.000E+00
#pdf   2 -2 0.28466287E-01 0.15507079E-03 0.27313275E+02 0.63120084E+00 0.21309853E+01
#rwgt            1           7   1990.8982311655507         54217137    18356427           0
</event>
<event>
      6  10013  3.31628E+03  3.89060E+01 -1.00000E+00  1.45559E-01
       1    -1     0     0   501     0  0.000000000E+00  0.000000000E+00  5.780379543E+01  5.780379543E+01  0.000000000E+00  0.00000E+00  9.000E+00
      21    -1     0     0   511   501  0.000000000E+00  0.000000000E+00 -1.241260277E+02  1.241260277E+02  0.000000000E+00  0.00000E+00  9.000E+00
      23     2     1     2     0     0  1.102486314E+00  3.889036368E+01 -1.434608109E+00  1.062721756E+02  9.888397918E+01  0.00000E+00  9.000E+00
      13     1     3     3     0     0 -4.817228917E+01  2.677785693E+01 -5.383153364E+00  5.537700398E+01  1.056583668E-01  0.00000E+00  9.000E+00
     -13     1     3     3     0     0  4.927477549E+01  1.211250676E+01  3.948545255E+00  5.089517160E+01  1.056583668E-01  0.00000E+00  9.000E+00
       1     1     1     2   511     0 -1.102486314E+00 -3.889036368E+01 -6.488762421E+01  7.565764759E+01  0.000000000E+00  0.00000E+00  9.000E+00
#pdf   1 -1 0.75044613E-02 0.77098449E-02 0.98883979E+02 0.74380632E+00 0.61656192E+00
#rwgt            1           6   508.95303573970824         54217137    18356507           0
</event>
<event>
      6  10013  3.31628E+03  2.09212E+00 -1.00000E+00  3.53982E-01
       2    -1     0     0   511     0  0.000000000E+00  0.000000000E+00  2.253812753E+02  2.253812753E+02  0.000000000E+00  0.00000E+00  9.000E+00
      -2    -1     0     0     0   501  0.000000000E+00  0.000000000E+00 -1.530606821E+01  1.530606821E+01  0.000000000E+00  0.00000E+00  9.000E+00
      23     2     1     2     0     0 -2.043196019E+00 -4.498126493E-01  1.177203679E+02  1.483088108E+02  9.018337631E+01  0.00000E+00  9.000E+00
      13     1     3     3     0     0 -9.121391722E+00  3.186952550E+01  1.092327246E+02  1.141519414E+02  1.056583668E-01  0.00000E+00  9.000E+00
     -13     1     3     3     0     0  7.078195703E+00 -3.231933815E+01  8.487643276E+00  3.415686937E+01  1.056583668E-01  0.00000E+00  9.000E+00
      21     1     1     2   511   501  2.043196019E+00  4.498126493E-01  9.235483919E+01  9.237853269E+01  0.000000000E+00  0.00000E+00  9.000E+00
#pdf   2 -2 0.20458279E-01 0.23523243E-02 0.90183376E+02 0.67755217E+00 0.10197383E+01
#rwgt            1           7   653.26414870294593         54217137    18356544           0
</event>
<event>
      6  10013  3.31628E+03  5.74086E+00 -1.00000E+00  2.28411E-01
      -1    -1     0     0     0   501  0.000000000E+00  0.000000000E+00  5.717216920E+01  5.717216920E+01  0.000000000E+00  0.00000E+00  9.000E+00
      21    -1     0     0   501   511  0.000000000E+00  0.000000000E+00 -1.285871361E+02  1.285871361E+02  0.000000000E+00  0.00000E+00  9.000E+00
      23     2     1     2     0     0  5.312158651E+00 -2.176787837E+00  1.999635696E+01  9.416788886E+01  9.184105600E+01  0.00000E+00  9.000E+00
      13     1     3     3     0     0 -1.635966236E+01  2.004166577E+01  4.659278860E+01  5.329358341E+01  1.056583668E-01  0.00000E+00  9.000E+00
     -13     1     3     3     0     0  2.167182101E+01 -2.221845361E+01 -2.659643164E+01  4.087430545E+01  1.056583668E-01  0.00000E+00  9.000E+00
      -1     1     1     2     0   511 -5.312158651E+00  2.176787837E+00 -9.141132386E+01  9.159141644E+01  0.000000000E+00  0.00000E+00  9.000E+00
#pdf  -1  1 0.87647584E-02 0.56943884E-02 0.91841056E+02 0.57678173E+00 0.80967758E+00
#rwgt            1           5   457.25721138559044         54217137    18356754           0
</event>
<event>
      6  10013  3.31628E+03  8.59296E+00 -1.00000E+00  2.03628E-01
       2    -1     0     0   501     0  0.000000000E+00  0.000000000E+00  2.741866156E+02  2.741866156E+02  0.000000000E+00  0.00000E+00  9.000E+00
      -2    -1     0     0     0   511  0.000000000E+00  0.000000000E+00 -2.547344901E+00  2.547344901E+00  0.000000000E+00  0.00000E+00  9.000E+00
      23     2     1     2     0     0  2.546541561E+00  8.206949419E+00  2.638210883E+02  2.651166084E+02  2.472671754E+01  0.00000E+00  9.000E+00
      13     1     3     3     0     0  3.680245513E+00  1.552796247E+01  2.268387990E+02  2.273994585E+02  1.056583668E-01  0.00000E+00  9.000E+00
     -13     1     3     3     0     0 -1.133703952E+00 -7.321013055E+00  3.698228921E+01  3.771714989E+01  1.056583668E-01  0.00000E+00  9.000E+00
      21     1     1     2   501   511 -2.546541561E+00 -8.206949419E+00  7.818182458E+00  1.161735209E+01  3.576278687E-07  0.00000E+00  9.000E+00
#pdf   2 -2 0.38432912E-01 0.94133226E-04 0.24726718E+02 0.62622964E+00 0.24142860E+01
#rwgt            1           7   1831.4231172025839         54217137    18356849           0
</event>
<event>
      6  10013  3.31628E+03  6.29400E+00 -1.00000E+00  2.22217E-01
      21    -1     0     0   511   501  0.000000000E+00  0.000000000E+00  4.673169945E+00  4.673169945E+00  0.000000000E+00  0.00000E+00  9.000E+00
       1    -1     0     0   501     0  0.000000000E+00  0.000000000E+00 -5.841385034E+02  5.841385034E+02  0.000000000E+00  0.00000E+00  9.000E+00
      23     2     1     2     0     0  2.929321797E+00  5.570769132E+00 -5.707220634E+02  5.780385974E+02  9.146218883E+01  0.00000E+00  9.000E+00
      13     1     3     3     0     0 -3.088025295E+01  3.452221512E+01 -3.301573331E+02  3.333905354E+02  1.056583668E-01  0.00000E+00  9.000E+00
     -13     1     3     3     0     0  3.380957475E+01 -2.895144599E+01 -2.405647303E+02  2.446480619E+02  1.056583668E-01  0.00000E+00  9.000E+00
       1     1     1     2   511     0 -2.929321797E+00 -5.570769132E+00 -8.743270019E+00  1.077307596E+01  0.000000000E+00  0.00000E+00  9.000E+00
#pdf  -1  1 0.56148241E-03 0.88157714E-01 0.91462189E+02 0.18203189E+01 0.37858873E+00
#rwgt            1           5   1061.2639372242486         54217137    18356882           0
</event>
<event>
      6  10013  3.31628E+03  9.79213E+00 -1.00000E+00  1.96759E-01
      21    -1     0     0   501   511  0.000000000E+00  0.000000000E+00  2.612352232E+01  2.612352232E+01  0.000000000E+00  0.00000E+00  9.000E+00
      -2    -1     0     0     0   501  0.000000000E+00  0.000000000E+00 -1.598699379E+01  1.598699379E+01  0.000000000E+00  0.00000E+00  9.000E+00
      23     2     1     2     0     0  7.144630455E+00  6.696269541E+00 -3.998734537E+00  2.491483549E+01  2.255822199E+01  0.00000E+00  9.000E+00
      13     1     3     3     0     0  7.660888900E+00  1.452540106E+01 -8.017801581E-01  1.644173074E+01  1.056583668E-01  0.00000E+00  9.000E+00
     -13     1     3     3     0     0 -5.162584454E-01 -7.829131515E+00 -3.196954379E+00  8.473104747E+00  1.056583668E-01  0.00000E+00  9.000E+00
      -2     1     1     2     0   511 -7.144630455E+00 -6.696269541E+00  1.413526307E+01  1.719568062E+01  0.000000000E+00  0.00000E+00  9.000E+00
#pdf   2 -2 0.14758799E-02 0.20401965E-02 0.22558222E+02 0.10414798E+01 0.85706754E+00
#rwgt            1           7   822.30001422180294         54217137    18356953           0
</event>
<event>
      6  10013  3.31628E+03  1.61666E+01 -1.00000E+00  1.74327E-01
       4    -1     0     0   501     0  0.000000000E+00  0.000000000E+00  3.391949385E+00  3.391949385E+00  0.000000000E+00  0.00000E+00  9.000E+00
      21    -1     0     0   511   501  0.000000000E+00  0.000000000E+00 -1.745135247E+02  1.745135247E+02  0.000000000E+00  0.00000E+00  9.000E+00
      23     2     1     2     0     0 -1.287085875E+01 -9.782623051E+00 -1.246792854E+02  1.287298194E+02  2.766014250E+01  0.00000E+00  9.000E+00
      13     1     3     3     0     0  7.542164909E+00 -8.794064414E+00 -4.322526200E+01  4.475102523E+01  1.056583668E-01  0.00000E+00  9.000E+00
     -13     1     3     3     0     0 -2.041302366E+01 -9.885586366E-01 -8.145402336E+01  8.397879416E+01  1.056583668E-01  0.00000E+00  9.000E+00
       4     1     1     2   511     0  1.287085875E+01  9.782623051E+00 -4.644228997E+01  4.917565471E+01  0.000000000E+00  0.00000E+00  9.000E+00
#pdf   4 -4 0.26900236E-03 0.16829299E-01 0.27660142E+02 0.14215466E+01 0.20538231E+00
#rwgt            1           9   318.96825419438193         54217137    18357039           0
</event>
<event>
      6  10013  3.31628E+03  6.44000E+00 -1.00000E+00  2.20727E-01
       1    -1     0     0   511     0  0.000000000E+00  0.000000000E+00  5.601798284E+02  5.601798284E+02  0.000000000E+00  0.00000E+00  9.000E+00
      -1    -1     0     0     0   501  0.000000000E+00  0.000000000E+00 -4.457646760E+00  4.457646760E+00  0.000000000E+00  0.00000E+00  9.000E+00
      23     2     1     2     0     0  2.935804912E+00 -5.731901900E+00  4.687123231E+02  4.773896148E+02  9.037770116E+01  0.00000E+00  9.000E+00
      13     1     3     3     0     0 -1.852908040E+01 -1.175315866E+01  4.422248589E+02  4.427689020E+02  1.056583668E-01  0.00000E+00  9.000E+00
     -13     1     3     3     0     0  2.146488531E+01  6.021256764E+00  2.648746415E+01  3.462071281E+01  1.056583668E-01  0.00000E+00  9.000E+00
      21     1     1     2   511   501 -2.935804912E+00  5.731901900E+00  8.700985861E+01  8.724786040E+01  0.000000000E+00  0.00000E+00  9.000E+00
#pdf   1 -1 0.72593010E-01 0.66579583E-03 0.90377701E+02 0.40301328E+00 0.17022887E+01
#rwgt            1           6   1406.8387468408152         54217137    18357094           0
</event>
<event>
      6  10013  3.31628E+03  3.82219E+01 -1.00000E+00  1.46044E-01
       1    -1     0     0   501     0  0.000000000E+00  0.000000000E+00  5.733632090E+02  5.733632090E+02  0.000000000E+00  0.00000E+00  9.000E+00
      -1    -1     0     0     0   511  0.000000000E+00  0.000000000E+00 -8.619280224E+00  8.619280224E+00  0.000000000E+00  0.00000E+00  9.000E+00
      23     2     1     2     0     0  2.599648236E+01  2.801951179E+01  4.562617469E+02  4.669638215E+02  9.175793582E+01  0.00000E+00  9.000E+00
      13     1     3     3     0     0 -8.637476806E+00  1.104612279E+01  6.335491424E+00  1.538741205E+01  1.056583668E-01  0.00000E+00  9.000E+00
     -13     1     3     3     0     0  3.463395916E+01  1.697338900E+01  4.499262555E+02  4.515764095E+02  1.056583668E-01  0.00000E+00  9.000E+00
      21     1     1     2   501   511 -2.599648236E+01 -2.801951179E+01  1.084821818E+02  1.150186677E+02  2.336015456E-06  0.00000E+00  9.000E+00
#pdf   1 -1 0.65557171E-01 0.75994184E-03 0.91757936E+02 0.41472314E+00 0.16221863E+01
#rwgt            1           6   837.97081854527755         54217137    18357214           0
</event>
<event>
      6  10013  3.31628E+03  2.31535E+01 -1.00000E+00  1.61249E-01
      21    -1     0     0   511   501  0.000000000E+00  0.000000000E+00  3.564458947E+01  3.564458947E+01  0.000000000E+00  0.00000E+00  9.000E+00
       1    -1     0     0   501     0  0.000000000E+00  0.000000000E+00 -1.017027343E+02  1.017027343E+02  0.000000000E+00  0.00000E+00  9.000E+00
      23     2     1     2     0     0 -1.643819435E+01  1.630555148E+01 -9.135377114E+01  1.030551388E+02  4.169849974E+01  0.00000E+00  9.000E+00
      13     1     3     3     0     0 -2.837204548E+01  2.376960642E+00 -4.556187216E+01  5.372632749E+01  1.056583668E-01  0.00000E+00  9.000E+00
     -13     1     3     3     0     0  1.193385113E+01  1.392859084E+01 -4.579189898E+01  4.932881127E+01  1.056583668E-01  0.00000E+00  9.000E+00
       1     1     1     2   511     0  1.643819435E+01 -1.630555148E+01  2.529562630E+01  3.429218501E+01  0.000000000E+00  0.00000E+00  9.000E+00
#pdf  -1  1 0.78693218E-03 0.13074252E-01 0.41698500E+02 0.13788298E+01 0.59464536E+00
#rwgt            1           5   384.29220544049770         54217137    18357239           0
</event>
<event>
      6  10013  3.31628E+03  1.50244E+01 -1.00000E+00  1.77269E-01
       2    -1     0     0   501     0  0.000000000E+00  0.000000000E+00  2.319836614E+03  2.319836614E+03  0.000000000E+00  0.00000E+00  9.000E+00
      21    -1     0     0   511   501  0.000000000E+00  0.000000000E+00 -1.230392459E+00  1.230392459E+00  0.000000000E+00  0.00000E+00  9.000E+00
      23     2     1     2     0     0  1.008962019E+01  1.113253939E+01  1.827163350E+03  1.829394524E+03  8.906561373E+01  0.00000E+00  9.000E+00
      13     1     3     3     0     0 -1.811435452E+00  4.680603215E+01  1.323745086E+03  1.324573572E+03  1.056583668E-01  0.00000E+00  9.000E+00
     -13     1     3     3     0     0  1.190105564E+01 -3.567349276E+01  5.034182640E+02  5.048209513E+02  1.056583668E-01  0.00000E+00  9.000E+00
       2     1     1     2   511     0 -1.008962019E+01 -1.113253939E+01  4.914428718E+02  4.916724826E+02  0.000000000E+00  0.00000E+00  9.000E+00
#pdf   2 -2 0.27735513E+00 0.16923774E-03 0.89065614E+02 0.37837727E+00 0.28113031E+01
#rwgt            1           7   1722.4795320125143         54217137    18357274           0
</event>
<event>
      6  10013  3.31628E+03  3.88201E+00 -1.00000E+00  2.66461E-01
      21    -1     0     0   501   511  0.000000000E+00  0.000000000E+00  2.452680864E+01  2.452680864E+01  0.000000000E+00  0.00000E+00  9.000E+00
      -1    -1     0     0     0   501  0.000000000E+00  0.000000000E+00 -4.862679920E+02  4.862679920E+02  0.000000000E+00  0.00000E+00  9.000E+00
      23     2     1     2     0     0  5.867965707E-01 -3.837401864E+00 -4.818142329E+02  4.903498183E+02  9.101054498E+01  0.00000E+00  9.000E+00
      13     1     3     3     0     0 -1.474293762E+01 -2.101655166E+01 -4.517639366E+02  4.524927792E+02  1.056583668E-01  0.00000E+00  9.000E+00
     -13     1     3     3     0     0  1.532973419E+01  1.717914980E+01 -3.005029632E+01  3.785703912E+01  1.056583668E-01  0.00000E+00  9.000E+00
      -1     1     1     2     0   511 -5.867965707E-01  3.837401864E+00  2.007304956E+01  2.044498232E+01  0.000000000E+00  0.00000E+00  9.000E+00
#pdf   1 -1 0.65598701E-03 0.74713914E-01 0.91010545E+02 0.17497715E+01 0.15440017E+00
#rwgt            1           6   292.35197908707721         54217137    18357316           0
</event>
<event>
      6  10013  3.31628E+03  7.32619E+00 -1.00000E+00  2.12726E-01
      21    -1     0     0   501   511  0.000000000E+00  0.000000000E+00  2.051963150E+02  2.051963150E+02  0.000000000E+00  0.00000E+00  9.000E+00
      -5    -1     0     0     0   501  0.000000000E+00  0.000000000E+00 -2.000612082E+02  2.000612082E+02  0.000000000E+00  0.00000E+00  9.000E+00
      23     2     1     2     0     0 -7.008136259E+00 -2.135211047E+00 -1.892881123E+02  2.106963215E+02  9.224574418E+01  0.00000E+00  9.000E+00
      13     1     3     3     0     0 -4.521497944E+01 -1.261684948E+00 -1.465093189E+02  1.533328990E+02  1.056583668E-01  0.00000E+00  9.000E+00
     -13     1     3     3     0     0  3.820684318E+01 -8.735260991E-01 -4.277879346E+01  5.736342255E+01  1.056583668E-01  0.00000E+00  9.000E+00
      -5     1     1     2     0   511  7.008136259E+00  2.135211047E+00  1.944232191E+02  1.945612017E+02  0.000000000E+00  0.00000E+00  9.000E+00
#pdf   5 -5 0.16416161E-02 0.30671454E-01 0.92245744E+02 0.66583051E+00 0.84021750E-01
#rwgt            1          10   56.048474835482885         54217137    18357390           0
</event>
<event>
      6  10013  3.31628E+03  2.57087E+01 -1.00000E+00  1.57810E-01
       1    -1     0     0   511     0  0.000000000E+00  0.000000000E+00  3.212065973E+01  3.212065973E+01  0.000000000E+00  0.00000E+00  9.000E+00
      -1    -1     0     0     0   501  0.000000000E+00  0.000000000E+00 -1.086061147E+02  1.086061147E+02  0.000000000E+00  0.00000E+00  9.000E+00
      23     2     1     2     0     0 -2.560113708E+01  2.349629422E+00 -6.267645669E+01  1.115441184E+02  8.861609988E+01  0.00000E+00  9.000E+00
      13     1     3     3     0     0 -6.547814910E+00 -1.394826027E+00  2.286562337E+01  2.382576999E+01  1.056583668E-01  0.00000E+00  9.000E+00
     -13     1     3     3     0     0 -1.905332217E+01  3.744455449E+00 -8.554208006E+01  8.771834846E+01  1.056583668E-01  0.00000E+00  9.000E+00
      21     1     1     2   511   501  2.560113708E+01 -2.349629422E+00 -1.380899831E+01  2.918265602E+01  3.371747881E-07  0.00000E+00  9.000E+00
#pdf   1 -1 0.36101923E-02 0.12870879E-01 0.88616100E+02 0.94282230E+00 0.47670137E+00
#rwgt            1           6   699.78544616958459         54217137    18358025           0
</event>
<event>
      6  10013  3.31628E+03  1.77036E+00 -1.00000E+00  3.89492E-01
       2    -1     0     0   501     0  0.000000000E+00  0.000000000E+00  1.301834058E+03  1.301834058E+03  0.000000000E+00  0.00000E+00  9.000E+00
      -2    -1     0     0     0   511  0.000000000E+00  0.000000000E+00 -3.901611699E-01  3.901611699E-01  0.000000000E+00  0.00000E+00  9.000E+00
      23     2     1     2     0     0  1.759856014E+00 -1.925618192E-01  1.284637947E+03  1.285325281E+03  4.199152350E+01  0.00000E+00  9.000E+00
      13     1     3     3     0     0 -1.389950113E+01  8.856079382E+00  2.568644018E+02  2.573926151E+02  1.056583668E-01  0.00000E+00  9.000E+00
     -13     1     3     3     0     0  1.565935714E+01 -9.048641201E+00  1.027773545E+03  1.027932666E+03  1.056583668E-01  0.00000E+00  9.000E+00
      21     1     1     2   501   511 -1.759856014E+00  1.925618192E-01  1.680594990E+01  1.689893858E+01  4.768371582E-07  0.00000E+00  9.000E+00
#pdf   2 -2 0.19751402E+00 0.52824893E-04 0.41991523E+02 0.52196344E+00 0.34267522E+01
#rwgt            1           7   5050.2890613875752         54217137    18358088           0
</event>
<event>
      6  10013  3.31628E+03  7.67151E+00 -1.00000E+00  2.10013E-01
      21    -1     0     0   501   511  0.000000000E+00  0.000000000E+00  1.675787315E+02  1.675787315E+02  0.000000000E+00  0.00000E+00  9.000E+00
      -1    -1     0     0     0   501  0.000000000E+00  0.000000000E+00 -6.310920751E+00  6.310920751E+00  0.000000000E+00  0.00000E+00  9.000E+00
      23     2     1     2     0     0 -3.478403130E+00 -6.837595668E+00  2.299386345E+01  3.540305902E+01  2.580323291E+01  0.00000E+00  9.000E+00
      13     1     3     3     0     0  6.975439264E+00 -5.208459517E+00  2.324254415E+01  2.481958552E+01  1.056583668E-01  0.00000E+00  9.000E+00
     -13     1     3     3     0     0 -1.045384239E+01 -1.629136151E+00 -2.486807005E-01  1.058347349E+01  1.056583668E-01  0.00000E+00  9.000E+00
      -1     1     1     2     0   511  3.478403130E+00  6.837595668E+00  1.382739473E+02  1.384865933E+02  0.000000000E+00  0.00000E+00  9.000E+00
#pdf   1 -1 0.43058008E-02 0.91497158E-03 0.25803233E+02 0.76129375E+00 0.11761913E+01
#rwgt            1           6   183.57478813399769         54217137    18358342           0
</event>
<event>
      6  10013  3.31628E+03  1.29865E+01 -1.00000E+00  1.83440E-01
       4    -1     0     0   501     0  0.000000000E+00  0.000000000E+00  4.460410859E+02  4.460410859E+02  0.000000000E+00  0.00000E+00  9.000E+00
      -4    -1     0     0     0   511  0.000000000E+00  0.000000000E+00 -1.389955541E+00  1.389955541E+00  0.000000000E+00  0.00000E+00  9.000E+00
      23     2     1     2     0     0 -5.157630389E+00  1.191841910E+01  4.019445034E+02  4.027935477E+02  2.268498083E+01  0.00000E+00  9.000E+00
      13     1     3     3     0     0 -1.217115238E+01  1.209319732E+01  3.436893215E+02  3.441173393E+02  1.056583668E-01  0.00000E+00  9.000E+00
     -13     1     3     3     0     0  7.013521995E+00 -1.747782173E-01  5.825518198E+01  5.867620838E+01  1.056583668E-01  0.00000E+00  9.000E+00
      21     1     1     2   501   511  5.157630389E+00 -1.191841910E+01  4.270662695E+01  4.463749378E+01  8.259061849E-07  0.00000E+00  9.000E+00
#pdf   4 -4 0.53722618E-01 0.56680407E-04 0.22684981E+02 0.69129244E-01 0.21951313E+01
#rwgt            1           9   126.25073361630892         54217137    18358404           0
</event>
<event>
      6  10013  3.31628E+03  7.31263E+00 -1.00000E+00  2.12837E-01
      -2    -1     0     0     0   501  0.000000000E+00  0.000000000E+00  5.968664691E+00  5.968664691E+00  0.000000000E+00  0.00000E+00  9.000E+00
       2    -1     0     0   511     0  0.000000000E+00  0.000000000E+00 -7.780762061E+02  7.780762061E+02  0.000000000E+00  0.00000E+00  9.000E+00
      23     2     1     2     0     0  1.386916428E+00  7.179907075E+00 -3.726847396E+02  3.845551348E+02  9.452651439E+01  0.00000E+00  9.000E+00
      13     1     3     3     0     0 -3.471498903E+01 -4.182875070E+00 -5.890751884E+01  6.850353164E+01  1.056583668E-01  0.00000E+00  9.000E+00
     -13     1     3     3     0     0  3.610190545E+01  1.136278214E+01 -3.137772208E+02  3.160516031E+02  1.056583668E-01  0.00000E+00  9.000E+00
      21     1     1     2   511   501 -1.386916428E+00 -7.179907075E+00 -3.994228018E+02  3.994897361E+02  0.000000000E+00  0.00000E+00  9.000E+00
#pdf  -2  2 0.91038720E-03 0.58075698E-01 0.94526514E+02 0.15124770E+01 0.62833629E+00
#rwgt            1           4   892.29018140968003         54217137    18358475           0
</event>
<event>
      6  10013  3.31628E+03  1.00401E+01 -1.00000E+00  1.95498E-01
      21    -1     0     0   511   501  0.000000000E+00  0.000000000E+00  4.400954621E-01  4.400954621E-01  0.000000000E+00  0.00000E+00  9.000E+00
       2    -1     0     0   501     0  0.000000000E+00  0.000000000E+00 -9.205303284E+02  9.205303284E+02  0.000000000E+00  0.00000E+00  9.000E+00
      23     2     1     2     0     0 -7.522259726E+00 -6.649765896E+00 -7.175147656E+02  7.181463036E+02  2.838786353E+01  0.00000E+00  9.000E+00
      13     1     3     3     0     0 -3.520423839E-01 -1.477724189E+01 -5.857545153E+02  5.859409989E+02  1.056583668E-01  0.00000E+00  9.000E+00
     -13     1     3     3     0     0 -7.170217342E+00  8.127475995E+00 -1.317602503E+02  1.322053047E+02  1.056583668E-01  0.00000E+00  9.000E+00
       2     1     1     2   511     0  7.522259726E+00  6.649765896E+00 -2.025754673E+02  2.028241202E+02  0.000000000E+00  0.00000E+00  9.000E+00
#pdf  -2  2 0.45799755E-04 0.10411554E+00 0.28387864E+02 0.31568370E+01 0.61941406E+00
#rwgt            1           4   2498.2386922790461         54217137    18358613           0
</event>
<event>
      6  10013  3.31628E+03  1.95379E+00 -1.00000E+00  3.67655E-01
      -2    -1     0     0     0   511  0.000000000E+00  0.000000000E+00  9.330662502E-01  9.330662502E-01  0.000000000E+00  0.00000E+00  9.000E+00
       2    -1     0     0   501     0  0.000000000E+00  0.000000000E+00 -3.544549948E+02  3.544549948E+02  0.000000000E+00  0.00000E+00  9.000E+00
      23     2     1     2     0     0 -1.948034723E+00 -1.499059016E-01 -3.448383603E+02  3.464874056E+02  3.370771644E+01  0.00000E+00  9.000E+00
      13     1     3     3     0     0 -2.871681459E+00 -1.504567203E+01 -2.512483550E+02  2.517148503E+02  1.056583668E-01  0.00000E+00  9.000E+00
     -13     1     3     3     0     0  9.236467364E-01  1.489576613E+01 -9.359000528E+01  9.477255522E+01  1.056583668E-01  0.00000E+00  9.000E+00
      21     1     1     2   501   511  1.948034723E+00  1.499059016E-01 -8.683568189E+00  8.900655456E+00  1.192092896E-07  0.00000E+00  9.000E+00
#pdf  -2  2 0.12663708E-03 0.53089797E-01 0.33707716E+02 0.24214292E+01 0.62904704E+00
#rwgt            1           4   1478.1646700304282         54217137    18358667           0
</event>
<event>
      6  10013  3.31628E+03  8.13426E+00 -1.00000E+00  2.06665E-01
      -2    -1     0     0     0   501  0.000000000E+00  0.000000000E+00  5.586295534E+01  5.586295534E+01  0.000000000E+00  0.00000E+00  9.000E+00
      21    -1     0     0   501   511  0.000000000E+00  0.000000000E+00 -4.601394247E+01  4.601394247E+01  0.000000000E+00  0.00000E+00  9.000E+00
      23     2     1     2     0     0 -4.732427565E+00  6.615918525E+00  1.790114297E+01  9.043124153E+01  8.826773066E+01  0.00000E+00  9.000E+00
      13     1     3     3     0     0  3.994716335E+01  9.117445549E-01  2.126420088E+01  4.526350119E+01  1.056583668E-01  0.00000E+00  9.000E+00
     -13     1     3     3     0     0 -4.467959091E+01  5.704173970E+00 -3.363057915E+00  4.516774033E+01  1.056583668E-01  0.00000E+00  9.000E+00
      -2     1     1     2     0   511  4.732427565E+00 -6.615918525E+00 -8.052130093E+00  1.144565628E+01  0.000000000E+00  0.00000E+00  9.000E+00
#pdf  -2  2 0.82980993E-02 0.55556975E-02 0.88267731E+02 0.57247419E+00 0.87645688E+00
#rwgt            1           4   467.43160546998735         54217137    18358947           0
</event>
<event>
      6  10013  3.31628E+03  4.19350E+01 -1.00000E+00  1.43548E-01
       2    -1     0     0   501     0  0.000000000E+00  0.000000000E+00  6.141510054E+02  6.141510054E+02  0.000000000E+00  0.00000E+00  9.000E+00
      21    -1     0     0   511   501  0.000000000E+00  0.000000000E+00 -1.271739897E+01  1.271739897E+01  0.000000000E+00  0.00000E+00  9.000E+00
      23     2     1     2     0     0 -1.174502646E+01 -4.025660788E+01  5.572872818E+02  5.659796690E+02  8.947251564E+01  0.00000E+00  9.000E+00
      13     1     3     3     0     0  4.199751205E+00 -6.719017364E+01  3.964167468E+02  4.020925337E+02  1.056583668E-01  0.00000E+00  9.000E+00
     -13     1     3     3     0     0 -1.594477767E+01  2.693356576E+01  1.608705350E+02  1.638871353E+02  1.056583668E-01  0.00000E+00  9.000E+00
       2     1     1     2   511     0  1.174502646E+01  4.025660788E+01  4.414632458E+01  6.088873540E+01  0.000000000E+00  0.00000E+00  9.000E+00
#pdf   2 -2 0.78238093E-01 0.60544450E-03 0.89472516E+02 0.61728798E+00 0.17554615E+01
#rwgt            1           7   1182.9960122692191         54217137    18359032           0
</event>
<event>
      6  10013  3.31628E+03  7.42183E+00 -1.00000E+00  2.11955E-01
      -2    -1     0     0     0   501  0.000000000E+00  0.000000000E+00  2.021260262E+02  2.021260262E+02  0.000000000E+00  0.00000E+00  9.000E+00
      21    -1     0     0   501   511  0.000000000E+00  0.000000000E+00 -4.522615998E+00  4.522615998E+00  0.000000000E+00  0.00000E+00  9.000E+00
      23     2     1     2     0     0  7.124625005E+00 -2.079234623E+00  1.961522296E+02  1.990862733E+02  3.323497465E+01  0.00000E+00  9.000E+00
      13     1     3     3     0     0  5.967494952E+00 -9.755908023E+00  1.857714957E+02  1.861232079E+02  1.056583668E-01  0.00000E+00  9.000E+00
     -13     1     3     3     0     0  1.157130053E+00  7.676673400E+00  1.038073385E+01  1.296306535E+01  1.056583668E-01  0.00000E+00  9.000E+00
      -2     1     1     2     0   511 -7.124625005E+00  2.079234623E+00  1.451180586E+00  7.562368887E+00  0.000000000E+00  0.00000E+00  9.000E+00
#pdf  -2  2 0.29672103E-01 0.22027016E-03 0.33234975E+02 0.26520756E+00 0.20415606E+01
#rwgt            1           4   593.94483444411355         54217137    18359061           0
</event>
<event>
      6  10013  3.31628E+03  8.52057E+00 -1.00000E+00  2.04090E-01
       1    -1     0     0   501     0  0.000000000E+00  0.000000000E+00  2.667744052E+01  2.667744052E+01  0.000000000E+00  0.00000E+00  9.000E+00
      -1    -1     0     0     0   511  0.000000000E+00  0.000000000E+00 -1.011832978E+02  1.011832978E+02  0.000000000E+00  0.00000E+00  9.000E+00
      23     2     1     2     0     0  4.636598735E+00 -7.148564945E+00 -6.473718104E+01  1.148982129E+02  9.454150781E+01  0.00000E+00  9.000E+00
      13     1     3     3     0     0 -2.409063154E+01 -1.118621148E+01  1.468031543E+01  3.034819072E+01  1.056583668E-01  0.00000E+00  9.000E+00
     -13     1     3     3     0     0  2.872723027E+01  4.037646538E+00 -7.941749647E+01  8.455002222E+01  1.056583668E-01  0.00000E+00  9.000E+00
      21     1     1     2   501   511 -4.636598735E+00  7.148564945E+00 -9.768676209E+00  1.296252535E+01  2.064765462E-07  0.00000E+00  9.000E+00
#pdf   1 -1 0.38429652E-02 0.13762328E-01 0.94541508E+02 0.92893459E+00 0.46249889E+00
#rwgt            1           6   741.05265865514991         54217137    18359154           0
</event>
<event>
      6  10013  3.31628E+03  1.81372E+01 -1.00000E+00  1.69907E-01
      -3    -1     0     0     0   501  0.000000000E+00  0.000000000E+00  3.035592210E+01  3.035592210E+01  0.000000000E+00  0.00000E+00  9.000E+00
       3    -1     0     0   511     0  0.000000000E+00  0.000000000E+00 -1.380406140E+02  1.380406140E+02  0.000000000E+00  0.00000E+00  9.000E+00
      23     2     1     2     0     0 -4.654046822E+00  1.752995017E+01 -4.647712369E+01  1.045582583E+02  9.188768715E+01  0.00000E+00  9.000E+00
      13     1     3     3     0     0  4.194434873E+01  9.811691716E+00 -3.608832765E+01  5.619587388E+01  1.056583668E-01  0.00000E+00  9.000E+00
     -13     1     3     3     0     0 -4.659839555E+01  7.718258456E+00 -1.038879604E+01  4.836238444E+01  1.056583668E-01  0.00000E+00  9.000E+00
      21     1     1     2   511   501  4.654046822E+00 -1.752995017E+01 -6.120756820E+01  6.383827778E+01  0.000000000E+00  0.00000E+00  9.000E+00
#pdf  -3  3 0.43832089E-02 0.11398187E-01 0.91887687E+02 0.74467259E+00 0.45451954E+00
#rwgt            1           3   402.40581870010817         54217137    18359219           0
</event>
<event>
      6  10013  3.31628E+03  5.55624E+00 -1.00000E+00  2.30700E-01
      -4    -1     0     0     0   501  0.000000000E+00  0.000000000E+00  1.630254243E+00  1.630254243E+00  0.000000000E+00  0.00000E+00  9.000E+00
      21    -1     0     0   501   511  0.000000000E+00  0.000000000E+00 -3.262470700E+02  3.262470700E+02  0.000000000E+00  0.00000E+00  9.000E+00
      23     2     1     2     0     0  3.177949071E+00 -4.557685027E+00 -6.793332918E+01  7.113370867E+01  2.035179214E+01  0.00000E+00  9.000E+00
      13     1     3     3     0     0 -2.596361982E-01 -4.601953198E+00 -1.860987009E+00  4.971903110E+00  1.056583668E-01  0.00000E+00  9.000E+00
     -13     1     3     3     0     0  3.437585269E+00  4.426817104E-02 -6.607234217E+01  6.616180556E+01  1.056583668E-01  0.00000E+00  9.000E+00
      -4     1     1     2     0   511 -3.177949071E+00  4.557685027E+00 -2.566834866E+02  2.567436156E+02  0.000000000E+00  0.00000E+00  9.000E+00
#pdf  -4  4 0.23749143E-03 0.10319785E-01 0.20351792E+02 0.13175474E+01 0.26670188E+00
#rwgt            1           2   334.66074424684297         54217137    18359297           0
</event>
<event>
      6  10013  3.31628E+03  1.32054E+00 -1.00000E+00  4.92666E-01
      -3    -1     0     0     0   501  0.000000000E+00  0.000000000E+00  6.491035965E+02  6.491035965E+02  0.000000000E+00  0.00000E+00  9.000E+00
      21    -1     0     0   501   511  0.000000000E+00  0.000000000E+00 -3.570838779E+00  3.570838779E+00  0.000000000E+00  0.00000E+00  9.000E+00
      23     2     1     2     0     0 -1.261936598E+00 -3.890328511E-01  6.446380464E+02  6.510793369E+02  9.134740378E+01  0.00000E+00  9.000E+00
      13     1     3     3     0     0 -9.499937461E+00 -3.073324440E+01  5.577532335E+02  5.586801068E+02  1.056583668E-01  0.00000E+00  9.000E+00
     -13     1     3     3     0     0  8.238000863E+00  3.034421155E+01  8.688481295E+01  9.239923007E+01  1.056583668E-01  0.00000E+00  9.000E+00
      -3     1     1     2     0   511  1.261936598E+00  3.890328511E-01  8.947112382E-01  1.595098347E+00  0.000000000E+00  0.00000E+00  9.000E+00
#pdf  -3  3 0.99660155E-01 0.49543211E-03 0.91347404E+02 0.63594453E-01 0.18556491E+01
#rwgt            1           3   117.34147034040549         54217137    18359356           0
</event>
<event>
      6  10013  3.31628E+03  6.42133E+00 -1.00000E+00  2.20915E-01
       2    -1     0     0   501     0  0.000000000E+00  0.000000000E+00  5.055800354E+02  5.055800354E+02  0.000000000E+00  0.00000E+00  9.000E+00
      21    -1     0     0   511   501  0.000000000E+00  0.000000000E+00 -2.027578730E+00  2.027578730E+00  0.000000000E+00  0.00000E+00  9.000E+00
      23     2     1     2     0     0 -6.044287097E+00  2.167975766E+00  4.992625430E+02  4.998851220E+02  2.410009968E+01  0.00000E+00  9.000E+00
      13     1     3     3     0     0 -1.432732004E+00 -4.145343233E+00  1.693022634E+01  1.748943450E+01  1.056583668E-01  0.00000E+00  9.000E+00
     -13     1     3     3     0     0 -4.611555093E+00  6.313319000E+00  4.823323167E+02  4.823956875E+02  1.056583668E-01  0.00000E+00  9.000E+00
       2     1     1     2   511     0  6.044287097E+00 -2.167975766E+00  4.289913622E+00  7.722492105E+00  0.000000000E+00  0.00000E+00  9.000E+00
#pdf   2 -2 0.74266524E-01 0.46276220E-04 0.24100100E+02 0.62844252E+00 0.29713973E+01
#rwgt            1           7   2266.3759880170837         54217137    18359589           0
</event>
<event>
      6  10013  3.31628E+03  1.35129E+01 -1.00000E+00  1.81714E-01
       3    -1     0     0   501     0  0.000000000E+00  0.000000000E+00  1.711543691E+01  1.711543691E+01  0.000000000E+00  0.00000E+00  9.000E+00
      21    -1     0     0   511   501  0.000000000E+00  0.000000000E+00 -3.631938136E+02  3.631938136E+02  0.000000000E+00  0.00000E+00  9.000E+00
      23     2     1     2     0     0 -1.267358160E+01 -4.688260571E+00 -1.098670942E+02  1.437117665E+02  9.164984443E+01  0.00000E+00  9.000E+00
      13     1     3     3     0     0  3.126828189E+01 -1.710372065E+01 -8.396132853E+01  9.121271055E+01  1.056583668E-01  0.00000E+00  9.000E+00
     -13     1     3     3     0     0 -4.394186349E+01  1.241546008E+01 -2.590576562E+01  5.249905592E+01  1.056583668E-01  0.00000E+00  9.000E+00
       3     1     1     2   511     0  1.267358160E+01  4.688260571E+00 -2.362112826E+02  2.365974841E+02  0.000000000E+00  0.00000E+00  9.000E+00
#pdf   3 -3 0.25755917E-02 0.19297442E-01 0.91649844E+02 0.94820538E+00 0.32807920E+00
#rwgt            1           8   345.59045205635397         54217137    18359616           0
</event>
<event>
      6  10013 -3.31628E+03  1.85654E+00 -1.00000E+00  3.78625E-01
      21    -1     0     0   511   501  0.000000000E+00  0.000000000E+00  4.698783043E+01  4.698783043E+01  0.000000000E+00  0.00000E+00  9.000E+00
       2    -1     0     0   501     0  0.000000000E+00  0.000000000E+00 -9.944410213E+00  9.944410213E+00  0.000000000E+00  0.00000E+00  9.000E+00
      23     2     1     2     0     0  1.645519349E+00  8.596632028E-01  8.932745357E+00  2.876032562E+01  2.727481688E+01  0.00000E+00  9.000E+00
      13     1     3     3     0     0  2.563628654E+00  3.645261432E+00 -9.289261963E+00  1.030347875E+01  1.056583668E-01  0.00000E+00  9.000E+00
     -13     1     3     3     0     0 -9.181093056E-01 -2.785598229E+00  1.822200732E+01  1.845684688E+01  1.056583668E-01  0.00000E+00  9.000E+00
       2     1     1     2   511     0 -1.645519349E+00 -8.596632028E-01  2.811067486E+01  2.817191502E+01  0.000000000E+00  0.00000E+00  9.000E+00
#pdf  -2  2 0.28927733E-02 0.15216774E-02 0.27274817E+02 0.78156090E+00 0.10740226E+01
#rwgt            1           4  -1454.9473091441964         54217137    18359665           0
</event>
<event>
      6  10013  3.31628E+03  1.28647E+01 -1.00000E+00  1.83855E-01
      -1    -1     0     0     0   511  0.000000000E+00  0.000000000E+00  1.072567716E+03  1.072567716E+03  0.000000000E+00  0.00000E+00  9.000E+00
       1    -1     0     0   501     0  0.000000000E+00  0.000000000E+00 -3.125726821E+00  3.125726821E+00  0.000000000E+00  0.00000E+00  9.000E+00
      23     2     1     2     0     0  1.070794057E+01 -7.130311075E+00  6.828592482E+02  6.888967043E+02  9.009114819E+01  0.00000E+00  9.000E+00
      13     1     3     3     0     0  2.228845372E+01  3.746483900E+01  3.910653938E+02  3.934876653E+02  1.056583668E-01  0.00000E+00  9.000E+00
     -13     1     3     3     0     0 -1.158051315E+01 -4.459515007E+01  2.917938544E+02  2.954090390E+02  1.056583668E-01  0.00000E+00  9.000E+00
      21     1     1     2   501   511 -1.070794057E+01  7.130311075E+00  3.865827406E+02  3.867967381E+02  5.394796609E-06  0.00000E+00  9.000E+00
#pdf  -1  1 0.10446004E+00 0.45975593E-03 0.90091148E+02 0.10901282E+00 0.19867477E+01
#rwgt            1           5   245.78425009699970         54217137    18359968           0
</event>
<event>
      6  10013  3.31628E+03  2.56614E+01 -1.00000E+00  1.57869E-01
      21    -1     0     0   511   501  0.000000000E+00  0.000000000E+00  1.897132810E+02  1.897132810E+02  0.000000000E+00  0.00000E+00  9.000E+00
       5    -1     0     0   501     0  0.000000000E+00  0.000000000E+00 -2.097108949E+01  2.097108949E+01  0.000000000E+00  0.00000E+00  9.000E+00
      23     2     1     2     0     0  2.548298718E+01  3.020828667E+00  1.362938350E+02  1.693152530E+02  9.712433988E+01  0.00000E+00  9.000E+00
      13     1     3     3     0     0 -2.533644122E+01  7.055039807E+00  2.837184414E+00  2.645315897E+01  1.056583668E-01  0.00000E+00  9.000E+00
     -13     1     3     3     0     0  5.081942840E+01 -4.034211140E+00  1.334566506E+02  1.428620940E+02  1.056583668E-01  0.00000E+00  9.000E+00
       5     1     1     2   511     0 -2.548298718E+01 -3.020828667E+00  3.244835649E+01  4.136911748E+01  0.000000000E+00  0.00000E+00  9.000E+00
#pdf  -5  5 0.22728459E-01 0.24558365E-02 0.97124340E+02 0.11378319E+00 0.54378797E+00
#rwgt            1           1   152.03877523301904         54217137    18360024           0
</event>
<event>
      6  10013  3.31628E+03  3.49582E+00 -1.00000E+00  2.77944E-01
       2    -1     0     0   511     0  0.000000000E+00  0.000000000E+00  8.081532090E+02  8.081532090E+02  0.000000000E+00  0.00000E+00  9.000E+00
      -2    -1     0     0     0   501  0.000000000E+00  0.000000000E+00 -6.347180465E+00  6.347180465E+00  0.000000000E+00  0.00000E+00  9.000E+00
      23     2     1     2     0     0 -1.152406537E+00 -3.300410983E+00  3.308363209E+02  3.435177079E+02  9.240954340E+01  0.00000E+00  9.000E+00
      13     1     3     3     0     0 -2.242647870E+01  3.062687025E-01  1.508462286E+01  2.702957191E+01  1.056583668E-01  0.00000E+00  9.000E+00
     -13     1     3     3     0     0  2.127407217E+01 -3.606679686E+00  3.157516980E+02  3.164881360E+02  1.056583668E-01  0.00000E+00  9.000E+00
      21     1     1     2   511   501  1.152406537E+00  3.300410983E+00  4.709697077E+02  4.709826815E+02  5.394796609E-06  0.00000E+00  9.000E+00
#pdf   2 -2 0.51836309E-01 0.97479406E-03 0.92409543E+02 0.63198094E+00 0.14667173E+01
#rwgt            1           7   707.81635166720275         54217137    18360192           0
</event>
<event>
      6  10013  3.31628E+03  4.77472E+00 -1.00000E+00  2.46483E-01
      -1    -1     0     0     0   501  0.000000000E+00  0.000000000E+00  1.667314249E+02  1.667314249E+02  0.000000000E+00  0.00000E+00  9.000E+00
      21    -1     0     0   501   511  0.000000000E+00  0.000000000E+00 -2.598276270E+00  2.598276270E+00  0.000000000E+00  0.00000E+00  9.000E+00
      23     2     1     2     0     0 -4.674986293E+00  9.708140937E-01  1.614012340E+02  1.638286709E+02  2.768893444E+01  0.00000E+00  9.000E+00
      13     1     3     3     0     0  3.202329982E+00 -3.127945763E+00  3.514166145E+00  5.692054936E+00  1.056583668E-01  0.00000E+00  9.000E+00
     -13     1     3     3     0     0 -7.877316275E+00  4.098759857E+00  1.578870678E+02  1.581366159E+02  1.056583668E-01  0.00000E+00  9.000E+00
      -1     1     1     2     0   511  4.674986293E+00 -9.708140937E-01  2.731914664E+00  5.501030319E+00  0.000000000E+00  0.00000E+00  9.000E+00
#pdf  -1  1 0.24653816E-01 0.18401009E-03 0.27688934E+02 0.32150670E+00 0.20456494E+01
#rwgt            1           5   147.63834578030583         54217137    18360317           0
</event>
<event>
      6  10013  3.31628E+03  1.04948E+01 -1.00000E+00  1.93306E-01
      -2    -1     0     0     0   511  0.000000000E+00  0.000000000E+00  2.217386011E+03  2.217386011E+03  0.000000000E+00  0.00000E+00  9.000E+00
       2    -1     0     0   501     0  0.000000000E+00  0.000000000E+00 -1.441873868E+00  1.441873868E+00  0.000000000E+00  0.00000E+00  9.000E+00
      23     2     1     2     0     0 -7.432984455E+00  7.408933251E+00  1.509265387E+03  1.512071210E+03  9.147236869E+01  0.00000E+00  9.000E+00
      13     1     3     3     0     0  3.988998120E+01  1.539455830E+01  8.398302286E+02  8.409179669E+02  1.056583668E-01  0.00000E+00  9.000E+00
     -13     1     3     3     0     0 -4.732296565E+01 -7.985625048E+00  6.694351583E+02  6.711532430E+02  1.056583668E-01  0.00000E+00  9.000E+00
      21     1     1     2   501   511  7.432984455E+00 -7.408933251E+00  7.066787504E+02  7.067566751E+02  7.629394531E-06  0.00000E+00  9.000E+00
#pdf  -2  2 0.23089578E+00 0.21442586E-03 0.91472369E+02 0.19784199E-01 0.26272969E+01
#rwgt            1           4   63.457610781132125         54217137    18360411           0
</event>
<event>
      6  10013  3.31628E+03  5.25670E+00 -1.00000E+00  2.34693E-01
      21    -1     0     0   511   501  0.000000000E+00  0.000000000E+00  2.906442609E+01  2.906442609E+01  0.000000000E+00  0.00000E+00  9.000E+00
       2    -1     0     0   501     0  0.000000000E+00  0.000000000E+00 -6.078173773E+00  6.078173773E+00  0.000000000E+00  0.00000E+00  9.000E+00
      23     2     1     2     0     0 -4.638812523E-04 -5.256704844E+00  1.602616271E+01  2.642045601E+01  2.033641214E+01  0.00000E+00  9.000E+00
      13     1     3     3     0     0 -6.741036163E+00 -5.113206266E+00 -5.961917922E-01  8.482514675E+00  1.056583668E-01  0.00000E+00  9.000E+00
     -13     1     3     3     0     0  6.740572281E+00 -1.434985782E-01  1.662235450E+01  1.793794133E+01  1.056583668E-01  0.00000E+00  9.000E+00
       2     1     1     2   511     0  4.638812523E-04  5.256704844E+00  6.960089609E+00  8.722143854E+00  0.000000000E+00  0.00000E+00  9.000E+00
#pdf  -2  2 0.31612224E-02 0.77411755E-03 0.20336412E+02 0.71622982E+00 0.12210511E+01
#rwgt            1           4   705.15588875769322         54217137    18360559           0
</event>
<event>
      6  10013  3.31628E+03  8.06370E+00 -1.00000E+00  2.07156E-01
      21    -1     0     0   511   501  0.000000000E+00  0.000000000E+00  2.003936628E+00  2.003936628E+00  0.000000000E+00  0.00000E+00  9.000E+00
       2    -1     0     0   501     0  0.000000000E+00  0.000000000E+00 -1.194622864E+02  1.194622864E+02  0.000000000E+00  0.00000E+00  9.000E+00
      23     2     1     2     0     0 -8.030539418E+00  7.305433668E-01 -9.433983909E+01  9.698176279E+01  2.098651513E+01  0.00000E+00  9.000E+00
      13     1     3     3     0     0  6.263617804E-01  8.545684076E-02 -8.138181630E+01  8.138434014E+01  1.056583668E-01  0.00000E+00  9.000E+00
     -13     1     3     3     0     0 -8.656901199E+00  6.450865260E-01 -1.295802279E+01  1.559742265E+01  1.056583668E-01  0.00000E+00  9.000E+00
       2     1     1     2   511     0  8.030539418E+00 -7.305433668E-01 -2.311851065E+01  2.448446021E+01  0.000000000E+00  0.00000E+00  9.000E+00
#pdf  -2  2 0.18970340E-03 0.13737852E-01 0.20986515E+02 0.18425886E+01 0.65000120E+00
#rwgt            1           4   929.53264960922445         54217137    18360650           0
</event>
<event>
      6  10013  3.31628E+03  1.15689E+01 -1.00000E+00  1.88660E-01
      -2    -1     0     0     0   501  0.000000000E+00  0.000000000E+00  1.386936271E+01  1.386936271E+01  0.000000000E+00  0.00000E+00  9.000E+00
       2    -1     0     0   511     0  0.000000000E+00  0.000000000E+00 -4.041808086E+01  4.041808086E+01  0.000000000E+00  0.00000E+00  9.000E+00
      23     2     1     2     0     0 -4.766585270E+00  1.054134364E+01 -1.222737511E+01  3.587708977E+01  3.168306500E+01  0.00000E+00  9.000E+00
      13     1     3     3     0     0 -2.418097657E+00  1.919606203E+00 -2.224168355E+01  2.245519394E+01  1.056583668E-01  0.00000E+00  9.000E+00
     -13     1     3     3     0     0 -2.348487613E+00  8.621737434E+00  1.001430844E+01  1.342189583E+01  1.056583668E-01  0.00000E+00  9.000E+00
      21     1     1     2   511   501  4.766585270E+00 -1.054134364E+01 -1.432134304E+01  1.841035381E+01  1.685873940E-07  0.00000E+00  9.000E+00
#pdf  -2  2 0.17088506E-02 0.34758704E-02 0.31683065E+02 0.97845355E+00 0.87930242E+00
#rwgt            1           4   1339.0336428411613         54217137    18360740           0
</event>
<event>
      6  10013  3.31628E+03  2.69918E+00 -1.00000E+00  3.11371E-01
       1    -1     0     0   511     0  0.000000000E+00  0.000000000E+00  1.834972980E+01  1.834972980E+01  0.000000000E+00  0.00000E+00  9.000E+00
      -1    -1     0     0     0   501  0.000000000E+00  0.000000000E+00 -1.333315994E+02  1.333315994E+02  0.000000000E+00  0.00000E+00  9.000E+00
      23     2     1     2     0     0 -2.587588244E+00  7.680894623E-01 -1.145185829E+02  1.489426783E+02  9.519522057E+01  0.00000E+00  9.000E+00
      13     1     3     3     0     0 -1.769963008E+01 -8.636446446E+00  1.073527461E+01  2.243039003E+01  1.056583668E-01  0.00000E+00  9.000E+00
     -13     1     3     3     0     0  1.511204183E+01  9.404535908E+00 -1.252538575E+02  1.265122883E+02  1.056583668E-01  0.00000E+00  9.000E+00
      21     1     1     2   511   501  2.587588244E+00 -7.680894623E-01 -4.632867535E-01  2.738650938E+00  4.913995399E-08  0.00000E+00  9.000E+00
#pdf   1 -1 0.26469435E-02 0.20258109E-01 0.95195221E+02 0.10608507E+01 0.37678474E+00
#rwgt            1           6   644.17118553485307         54217137    18360813           0
</event>
<event>
      6  10013  3.31628E+03  2.32324E+00 -1.00000E+00  3.35026E-01
      -2    -1     0     0     0   501  0.000000000E+00  0.000000000E+00  1.024281790E+00  1.024281790E+00  0.000000000E+00  0.00000E+00  9.000E+00
      21    -1     0     0   501   511  0.000000000E+00  0.000000000E+00 -2.794253070E+02  2.794253070E+02  0.000000000E+00  0.00000E+00  9.000E+00
      23     2     1     2     0     0 -1.856923008E+00 -1.396169976E+00 -2.245721556E+02  2.265706072E+02  2.993642469E+01  0.00000E+00  9.000E+00
      13     1     3     3     0     0 -1.783184358E+00 -2.273655560E+00 -1.095222109E+00  3.091913844E+00  1.056583668E-01  0.00000E+00  9.000E+00
     -13     1     3     3     0     0 -7.373864983E-02  8.774855840E-01 -2.234769335E+02  2.234786934E+02  1.056583668E-01  0.00000E+00  9.000E+00
      -2     1     1     2     0   511  1.856923008E+00  1.396169976E+00 -5.382886965E+01  5.387898163E+01  0.000000000E+00  0.00000E+00  9.000E+00
#pdf  -2  2 0.15326620E-03 0.34599256E-01 0.29936425E+02 0.21986644E+01 0.63026610E+00
#rwgt            1           4   2301.8690129929396         54217137    18360944           0
</event>
<event>
      6  10013  3.31628E+03  6.63383E+01 -1.00000E+00  1.32387E-01
      21    -1     0     0   511   501  0.000000000E+00  0.000000000E+00  3.711870816E+00  3.711870816E+00  0.000000000E+00  0.00000E+00  9.000E+00
       1    -1     0     0   501     0  0.000000000E+00  0.000000000E+00 -2.954412558E+03  2.954412558E+03  0.000000000E+00  0.00000E+00  9.000E+00
      23     2     1     2     0     0 -1.026339729E+01  6.553956391E+01 -2.499936292E+03  2.502504728E+03  9.191125097E+01  0.00000E+00  9.000E+00
      13     1     3     3     0     0  7.021588830E+00  7.240730068E+01 -2.382014678E+03  2.383125271E+03  1.056583668E-01  0.00000E+00  9.000E+00
     -13     1     3     3     0     0 -1.728498612E+01 -6.867736767E+00 -1.179216145E+02  1.193794575E+02  1.056583668E-01  0.00000E+00  9.000E+00
       1     1     1     2   511     0  1.026339729E+01 -6.553956391E+01 -4.507643946E+02  4.556197002E+02  0.000000000E+00  0.00000E+00  9.000E+00
#pdf  -1  1 0.16020229E-03 0.31201964E+00 0.91911251E+02 0.28915211E+01 0.12170420E+00
#rwgt            1           5   1174.5444911138879         54217137    18361224           0
</event>
<event>
      6  10013  3.31628E+03  1.30731E+01 -1.00000E+00  1.83149E-01
      -2    -1     0     0     0   511  0.000000000E+00  0.000000000E+00  4.317108763E+01  4.317108763E+01  0.000000000E+00  0.00000E+00  9.000E+00
       2    -1     0     0   501     0  0.000000000E+00  0.000000000E+00 -1.312153138E+02  1.312153138E+02  0.000000000E+00  0.00000E+00  9.000E+00
      23     2     1     2     0     0 -8.097303154E+00  1.026345966E+01 -1.121207592E+02  1.469896066E+02  9.414868508E+01  0.00000E+00  9.000E+00
      13     1     3     3     0     0  3.157534324E+01  2.274055230E+00 -9.977846642E+01  1.046801182E+02  1.056583668E-01  0.00000E+00  9.000E+00
     -13     1     3     3     0     0 -3.967264640E+01  7.989404426E+00 -1.234229273E+01  4.230948840E+01  1.056583668E-01  0.00000E+00  9.000E+00
      21     1     1     2   501   511  8.097303154E+00 -1.026345966E+01  2.407653300E+01  2.739679477E+01  3.371747881E-07  0.00000E+00  9.000E+00
#pdf  -2  2 0.26567293E-02 0.19742153E-01 0.94148685E+02 0.97347346E+00 0.68160190E+00
#rwgt            1           4   1035.8652850780622         54217137    18361262           0
</event>
<event>
      6  10013  3.31628E+03  1.71266E+01 -1.00000E+00  1.72081E-01
      21    -1     0     0   501   511  0.000000000E+00  0.000000000E+00  1.966246799E+02  1.966246799E+02  0.000000000E+00  0.00000E+00  9.000E+00
      -2    -1     0     0     0   501  0.000000000E+00  0.000000000E+00 -4.975621891E+01  4.975621891E+01  0.000000000E+00  0.00000E+00  9.000E+00
      23     2     1     2     0     0  1.306404681E+01  1.107476501E+01 -5.478743591E-01  9.797302951E+01  9.646291830E+01  0.00000E+00  9.000E+00
      13     1     3     3     0     0 -1.806973306E+01 -3.513605635E+01  1.111731409E+01  4.104465306E+01  1.056583668E-01  0.00000E+00  9.000E+00
     -13     1     3     3     0     0  3.113377987E+01  4.621082136E+01 -1.166518845E+01  5.692837645E+01  1.056583668E-01  0.00000E+00  9.000E+00
      -2     1     1     2     0   511 -1.306404681E+01 -1.107476501E+01  1.474163353E+02  1.484078693E+02  0.000000000E+00  0.00000E+00  9.000E+00
#pdf   2 -2 0.73788453E-02 0.74618357E-02 0.96462918E+02 0.82079943E+00 0.60792599E+00
#rwgt            1           7   607.98899901332845         54217137    18361406           0
</event>
<event>
      6  10013  3.31628E+03  5.06192E+00 -1.00000E+00  2.37499E-01
      -3    -1     0     0     0   511  0.000000000E+00  0.000000000E+00  2.913804688E+01  2.913804688E+01  0.000000000E+00  0.00000E+00  9.000E+00
       3    -1     0     0   501     0  0.000000000E+00  0.000000000E+00 -9.008053079E+01  9.008053079E+01  0.000000000E+00  0.00000E+00  9.000E+00
      23     2     1     2     0     0 -4.501364546E+00 -2.315323986E+00 -6.257795834E+01  1.138990115E+02  9.503347272E+01  0.00000E+00  9.000E+00
      13     1     3     3     0     0  8.920411638E+00 -1.981591618E+01 -8.180344182E+01  8.464076167E+01  1.056583668E-01  0.00000E+00  9.000E+00
     -13     1     3     3     0     0 -1.342177618E+01  1.750059219E+01  1.922548349E+01  2.925824981E+01  1.056583668E-01  0.00000E+00  9.000E+00
      21     1     1     2   501   511  4.501364546E+00  2.315323986E+00  1.635474429E+00  5.319566199E+00  9.424321831E-08  0.00000E+00  9.000E+00
#pdf  -3  3 0.39421851E-02 0.13555935E-01 0.95033473E+02 0.78567140E+00 0.41142043E+00
#rwgt            1           3   502.21357933287823         54217137    18361518           0
</event>
<event>
      6  10013  3.31628E+03  1.12805E+01 -1.00000E+00  1.89841E-01
       2    -1     0     0   501     0  0.000000000E+00  0.000000000E+00  3.684415024E+00  3.684415024E+00  0.000000000E+00  0.00000E+00  9.000E+00
      -2    -1     0     0     0   511  0.000000000E+00  0.000000000E+00 -9.343978368E+01  9.343978368E+01  0.000000000E+00  0.00000E+00  9.000E+00
      23     2     1     2     0     0 -4.974177335E+00 -1.012461280E+01 -4.576555547E+01  5.171105205E+01  2.126726622E+01  0.00000E+00  9.000E+00
      13     1     3     3     0     0 -7.189087911E+00 -1.611374483E+01 -3.491986572E+01  3.912472291E+01  1.056583668E-01  0.00000E+00  9.000E+00
     -13     1     3     3     0     0  2.214910576E+00  5.989132030E+00 -1.084568975E+01  1.258632914E+01  1.056583668E-01  0.00000E+00  9.000E+00
      21     1     1     2   501   511  4.974177335E+00  1.012461280E+01 -4.398981319E+01  4.541314665E+01  4.768371582E-07  0.00000E+00  9.000E+00
#pdf   2 -2 0.40402867E-03 0.66240630E-02 0.21267266E+02 0.14960903E+01 0.54200117E+00
#rwgt            1           7   761.46951343974831         54217137    18361634           0
</event>
<event>
      6  10013  3.31628E+03  8.71780E+00 -1.00000E+00  2.02845E-01
      21    -1     0     0   511   501  0.000000000E+00  0.000000000E+00  3.872912961E+02  3.872912961E+02  0.000000000E+00  0.00000E+00  9.000E+00
       4    -1     0     0   501     0  0.000000000E+00  0.000000000E+00 -1.133109484E+00  1.133109484E+00  0.000000000E+00  0.00000E+00  9.000E+00
      23     2     1     2     0     0  6.640746746E+00  5.648061667E+00  2.617887959E+02  2.637498474E+02  3.089673466E+01  0.00000E+00  9.000E+00
      13     1     3     3     0     0 -1.011099058E+01 -1.277663598E+00  1.625388103E+02  1.628580381E+02  1.056583668E-01  0.00000E+00  9.000E+00
     -13     1     3     3     0     0  1.675173733E+01  6.925725266E+00  9.924998558E+01  1.008918093E+02  1.056583668E-01  0.00000E+00  9.000E+00
       4     1     1     2   511     0 -6.640746746E+00 -5.648061667E+00  1.243693906E+02  1.246745581E+02  0.000000000E+00  0.00000E+00  9.000E+00
#pdf  -4  4 0.38906939E-01 0.14518154E-03 0.30896735E+02 0.10182754E+00 0.18323595E+01
#rwgt            1           2   206.61351377332321         54217137    18361691           0
</event>
<event>
      6  10013  3.31628E+03  1.18224E+01 -1.00000E+00  1.87658E-01
       5    -1     0     0   501     0  0.000000000E+00  0.000000000E+00  1.475349868E+01  1.475349868E+01  0.000000000E+00  0.00000E+00  9.000E+00
      21    -1     0     0   511   501  0.000000000E+00  0.000000000E+00 -6.610442862E+02  6.610442862E+02  0.000000000E+00  0.00000E+00  9.000E+00
      23     2     1     2     0     0  8.090009593E+00 -8.620948174E+00 -1.414126923E+02  1.707812901E+02  9.502068454E+01  0.00000E+00  9.000E+00
      13     1     3     3     0     0  1.394492479E+01 -4.543785839E+01 -3.799571710E+01  6.085018968E+01  1.056583668E-01  0.00000E+00  9.000E+00
     -13     1     3     3     0     0 -5.854915194E+00  3.681691021E+01 -1.034169752E+02  1.099311004E+02  1.056583668E-01  0.00000E+00  9.000E+00
       5     1     1     2   511     0 -8.090009593E+00  8.620948174E+00 -5.048780952E+02  5.050164948E+02  0.000000000E+00  0.00000E+00  9.000E+00
#pdf   5 -5 0.22418376E-02 0.23831175E-01 0.95020685E+02 0.56848238E+00 0.10837874E+00
#rwgt            1          10   107.52130154316633         54217137    18361744           0
</event>
<event>
      6  10013  3.31628E+03  7.18485E+00 -1.00000E+00  2.13896E-01
       1    -1     0     0   501     0  0.000000000E+00  0.000000000E+00  1.088490376E+03  1.088490376E+03  0.000000000E+00  0.00000E+00  9.000E+00
      21    -1     0     0   511   501  0.000000000E+00  0.000000000E+00 -2.470911726E+00  2.470911726E+00  0.000000000E+00  0.00000E+00  9.000E+00
      23     2     1     2     0     0  5.291323480E+00 -4.860443333E+00  1.052243877E+03  1.056429964E+03  9.367748079E+01  0.00000E+00  9.000E+00
      13     1     3     3     0     0 -2.485511741E+01 -2.529290757E+01  1.818949808E+02  1.853194626E+02  1.056583668E-01  0.00000E+00  9.000E+00
     -13     1     3     3     0     0  3.014644089E+01  2.043246424E+01  8.703488961E+02  8.711105013E+02  1.056583668E-01  0.00000E+00  9.000E+00
       1     1     1     2   511     0 -5.291323480E+00  4.860443333E+00  3.377558714E+01  3.453132347E+01  0.000000000E+00  0.00000E+00  9.000E+00
#pdf   1 -1 0.16173068E+00 0.32106375E-03 0.93677481E+02 0.27720306E+00 0.22542687E+01
#rwgt            1           6   807.29824714881181         54217137    18362202           0
</event>
<event>
      6  10013 -3.31628E+03  9.70994E+00 -1.00000E+00  1.97187E-01
       2    -1     0     0   501     0  0.000000000E+00  0.000000000E+00  1.668376823E+02  1.668376823E+02  0.000000000E+00  0.00000E+00  9.000E+00
      21    -1     0     0   511   501  0.000000000E+00  0.000000000E+00 -8.240297184E+00  8.240297184E+00  0.000000000E+00  0.00000E+00  9.000E+00
      23     2     1     2     0     0 -2.830265747E+00 -9.288296693E+00  1.626275096E+02  1.645649037E+02  2.322967512E+01  0.00000E+00  9.000E+00
      13     1     3     3     0     0  3.912447336E+00  3.118040935E+00  9.064340101E+00  1.035388085E+01  1.056583668E-01  0.00000E+00  9.000E+00
     -13     1     3     3     0     0 -6.742713082E+00 -1.240633763E+01  1.535631695E+02  1.542110229E+02  1.056583668E-01  0.00000E+00  9.000E+00
       2     1     1     2   511     0  2.830265747E+00  9.288296693E+00 -4.030124432E+00  1.051307579E+01  0.000000000E+00  0.00000E+00  9.000E+00
#pdf   2 -2 0.23221614E-01 0.13750141E-03 0.23229675E+02 0.63103908E+00 0.21036004E+01
#rwgt            1           7  -566.67768796351038         54217137    18362292           0
</event>
<event>
      6  10013  3.31628E+03  6.78062E+00 -1.00000E+00  2.17454E-01
       2    -1     0     0   501     0  0.000000000E+00  0.000000000E+00  4.028239227E+02  4.028239227E+02  0.000000000E+00  0.00000E+00  9.000E+00
      -2    -1     0     0     0   511  0.000000000E+00  0.000000000E+00 -1.321907305E+01  1.321907305E+01  0.000000000E+00  0.00000E+00  9.000E+00
      23     2     1     2     0     0  6.730185398E+00 -8.254762512E-01  3.981702363E+02  4.051185894E+02  7.440132830E+01  0.00000E+00  9.000E+00
      13     1     3     3     0     0  1.555029701E+01 -2.854072429E+01  9.204842193E+01  9.761817363E+01  1.056583668E-01  0.00000E+00  9.000E+00
     -13     1     3     3     0     0 -8.820111610E+00  2.771524804E+01  3.061218143E+02  3.075004158E+02  1.056583668E-01  0.00000E+00  9.000E+00
      21     1     1     2   501   511 -6.730185398E+00  8.254762512E-01 -8.565386590E+00  1.092440634E+01  5.462855929E-07  0.00000E+00  9.000E+00
#pdf   2 -2 0.61536424E-01 0.53228278E-03 0.74401328E+02 0.62713641E+00 0.17803974E+01
#rwgt            1           7   1358.9962324104326         54217137    18362437           0
</event>
<event>
      6  10013  3.31628E+03  4.71559E+00 -1.00000E+00  2.47597E-01
      -2    -1     0     0     0   511  0.000000000E+00  0.000000000E+00  6.241912880E-01  6.241912880E-01  0.000000000E+00  0.00000E+00  9.000E+00
       2    -1     0     0   501     0  0.000000000E+00  0.000000000E+00 -8.868721363E+02  8.868721363E+02  0.000000000E+00  0.00000E+00  9.000E+00
      23     2     1     2     0     0  4.129435626E+00 -2.276954474E+00 -8.708383772E+02  8.713813798E+02  3.039396643E+01  0.00000E+00  9.000E+00
      13     1     3     3     0     0  7.286988864E+00 -1.521110471E+01 -5.681559447E+02  5.684062514E+02  1.056583668E-01  0.00000E+00  9.000E+00
     -13     1     3     3     0     0 -3.157553238E+00  1.293415024E+01 -3.026824325E+02  3.029751285E+02  1.056583668E-01  0.00000E+00  9.000E+00
      21     1     1     2   501   511 -4.129435626E+00  2.276954474E+00 -1.540956782E+01  1.611494774E+01  2.384185791E-07  0.00000E+00  9.000E+00
#pdf  -2  2 0.41275613E-04 0.13243248E+00 0.30393966E+02 0.33360853E+01 0.60092789E+00
#rwgt            1           4   3033.4943397535048         54217137    18362590           0
</event>
<event>
      6  10013  3.31628E+03  1.09016E+01 -1.00000E+00  1.91465E-01
      21    -1     0     0   501   511  0.000000000E+00  0.000000000E+00  4.540234944E+01  4.540234944E+01  0.000000000E+00  0.00000E+00  9.000E+00
      -1    -1     0     0     0   501  0.000000000E+00  0.000000000E+00 -5.673406169E+01  5.673406169E+01  0.000000000E+00  0.00000E+00  9.000E+00
      23     2     1     2     0     0  4.161417009E+00 -1.007609990E+01  2.199855582E+00  8.475974549E+01  8.402695943E+01  0.00000E+00  9.000E+00
      13     1     3     3     0     0 -3.680137808E+01  1.026322821E+01 -4.750585203E+00  3.850005851E+01  1.056583668E-01  0.00000E+00  9.000E+00
     -13     1     3     3     0     0  4.096279509E+01 -2.033932811E+01  6.950440786E+00  4.625968698E+01  1.056583668E-01  0.00000E+00  9.000E+00
      -1     1     1     2     0   511 -4.161417009E+00  1.007609990E+01 -1.353156783E+01  1.737666564E+01  0.000000000E+00  0.00000E+00  9.000E+00
#pdf   1 -1 0.66336036E-02 0.62979771E-02 0.84026959E+02 0.76402814E+00 0.66746948E+00
#rwgt            1           6   689.19847114712945         54217137    18362678           0
</event>
<event>
      6  10013  3.31628E+03  1.17015E+00 -1.00000E+00  5.50357E-01
       1    -1     0     0   501     0  0.000000000E+00  0.000000000E+00  6.746919338E+01  6.746919338E+01  0.000000000E+00  0.00000E+00  9.000E+00
      -1    -1     0     0     0   511  0.000000000E+00  0.000000000E+00 -1.859493094E+00  1.859493094E+00  0.000000000E+00  0.00000E+00  9.000E+00
      23     2     1     2     0     0  7.669849149E-01  8.837281483E-01  6.392931836E+01  6.728102324E+01  2.093822106E+01  0.00000E+00  9.000E+00
      13     1     3     3     0     0 -9.291595057E+00  3.588612154E+00  3.923404540E+01  4.047880134E+01  1.056583668E-01  0.00000E+00  9.000E+00
     -13     1     3     3     0     0  1.005857997E+01 -2.704884006E+00  2.469527296E+01  2.680222190E+01  1.056583668E-01  0.00000E+00  9.000E+00
      21     1     1     2   501   511 -7.669849149E-01 -8.837281483E-01  1.680381927E+00  2.047663234E+00  0.000000000E+00  0.00000E+00  9.000E+00
#pdf   1 -1 0.10077379E-01 0.25742178E-03 0.20938221E+02 0.59574173E+00 0.16785520E+01
#rwgt            1           6   233.63688470614426         54217137    18362782           0
</event>
<event>
      6  10013  3.31628E+03  2.45057E+00 -1.00000E+00  3.26181E-01
       2    -1     0     0   501     0  0.000000000E+00  0.000000000E+00  2.514134293E+03  2.514134293E+03  0.000000000E+00  0.00000E+00  9.000E+00
      -2    -1     0     0     0   511  0.000000000E+00  0.000000000E+00 -1.548716065E-01  1.548716065E-01  0.000000000E+00  0.00000E+00  9.000E+00
      23     2     1     2     0     0 -1.717854566E+00 -1.747652766E+00  2.484343301E+03  2.484551899E+03  3.210136904E+01  0.00000E+00  9.000E+00
      13     1     3     3     0     0 -3.316862961E+00  1.312666293E+00  3.078418526E+01  3.099035170E+01  1.056583668E-01  0.00000E+00  9.000E+00
     -13     1     3     3     0     0  1.599008395E+00 -3.060319059E+00  2.453559116E+03  2.453561548E+03  1.056583668E-01  0.00000E+00  9.000E+00
      21     1     1     2   501   511  1.717854566E+00  1.747652766E+00  2.963612025E+01  2.973726514E+01  1.966049969E-06  0.00000E+00  9.000E+00
#pdf   2 -2 0.38111383E+00 0.15999473E-04 0.32101369E+02 0.26873146E+00 0.45364558E+01
#rwgt            1           7   16761.864418849844         54217137    18362913           0
</event>
<event>
      6  10013  3.31628E+03  8.65866E+00 -1.00000E+00  2.03214E-01
      21    -1     0     0   511   501  0.000000000E+00  0.000000000E+00  1.630305926E-01  1.630305926E-01  0.000000000E+00  0.00000E+00  9.000E+00
       1    -1     0     0   501     0  0.000000000E+00  0.000000000E+00 -2.353603200E+03  2.353603200E+03  0.000000000E+00  0.00000E+00  9.000E+00
      23     2     1     2     0     0  3.812418513E+00 -7.774177978E+00 -2.157050594E+03  2.157185871E+03  2.255316752E+01  0.00000E+00  9.000E+00
      13     1     3     3     0     0 -2.073919437E+00  2.202607537E+00 -1.650721080E+03  1.650723856E+03  1.056583668E-01  0.00000E+00  9.000E+00
     -13     1     3     3     0     0  5.886337949E+00 -9.976785515E+00 -5.063295133E+02  5.064620148E+02  1.056583668E-01  0.00000E+00  9.000E+00
       1     1     1     2   511     0 -3.812418513E+00  7.774177978E+00 -1.963895758E+02  1.965803598E+02  0.000000000E+00  0.00000E+00  9.000E+00
#pdf  -1  1 0.97145904E-05 0.30981604E+00 0.22553168E+02 0.45788095E+01 0.14982513E+00
#rwgt            1           5   917.40028027695655         54217137    18363039           0
</event>
<event>
      6  10013  3.31628E+03  4.13726E+01 -1.00000E+00  1.43906E-01
      21    -1     0     0   511   501  0.000000000E+00  0.000000000E+00  1.094331045E+01  1.094331045E+01  0.000000000E+00  0.00000E+00  9.000E+00
       3    -1     0     0   501     0  0.000000000E+00  0.000000000E+00 -4.806374910E+02  4.806374910E+02  0.000000000E+00  0.00000E+00  9.000E+00
      23     2     1     2     0     0  4.137150344E+01  2.962484848E-01 -2.835868671E+02  3.009302804E+02  9.179233851E+01  0.00000E+00  9.000E+00
      13     1     3     3     0     0  1.584003293E+01 -4.354170685E+00 -2.720232032E+02  2.725188061E+02  1.056583668E-01  0.00000E+00  9.000E+00
     -13     1     3     3     0     0  2.553147051E+01  4.650419170E+00 -1.156366392E+01  2.841147430E+01  1.056583668E-01  0.00000E+00  9.000E+00
       3     1     1     2   511     0 -4.137150344E+01 -2.962484848E-01 -1.861073135E+02  1.906505211E+02  0.000000000E+00  0.00000E+00  9.000E+00
#pdf  -3  3 0.12162749E-02 0.40991558E-01 0.91792339E+02 0.13025704E+01 0.18209570E+00
#rwgt            1           3   503.18733577235503         54217137    18363129           0
</event>
<event>
      6  10013  3.31628E+03  1.97595E+01 -1.00000E+00  1.66762E-01
       2    -1     0     0   501     0  0.000000000E+00  0.000000000E+00  2.788018317E+02  2.788018317E+02  0.000000000E+00  0.00000E+00  9.000E+00
      21    -1     0     0   511   501  0.000000000E+00  0.000000000E+00 -1.613820501E+01  1.613820501E+01  0.000000000E+00  0.00000E+00  9.000E+00
      23     2     1     2     0     0  1.746020095E+01 -9.250993176E+00  2.577314564E+02  2.745742371E+02  9.260166591E+01  0.00000E+00  9.000E+00
      13     1     3     3     0     0  2.650101523E+01 -4.480993566E+01  1.012622201E+02  1.138608033E+02  1.056583668E-01  0.00000E+00  9.000E+00
     -13     1     3     3     0     0 -9.040814282E+00  3.555894248E+01  1.564692363E+02  1.607134338E+02  1.056583668E-01  0.00000E+00  9.000E+00
       2     1     1     2   511     0 -1.746020095E+01  9.250993176E+00  4.932170258E+00  2.036579965E+01  0.000000000E+00  0.00000E+00  9.000E+00
#pdf   2 -2 0.40045075E-01 0.12670734E-02 0.92601666E+02 0.64053981E+00 0.13213293E+01
#rwgt            1           7   924.84050160449931         54217137    18363231           0
</event>
<event>
      6  10013  3.31628E+03  1.44607E+01 -1.00000E+00  1.78847E-01
      21    -1     0     0   511   501  0.000000000E+00  0.000000000E+00  2.197403020E+01  2.197403020E+01  0.000000000E+00  0.00000E+00  9.000E+00
       5    -1     0     0   501     0  0.000000000E+00  0.000000000E+00 -9.755051652E+01  9.755051652E+01  0.000000000E+00  0.00000E+00  9.000E+00
      23     2     1     2     0     0 -1.375967993E+01 -4.447705374E+00 -9.064914868E+01  9.863684639E+01  3.609499182E+01  0.00000E+00  9.000E+00
      13     1     3     3     0     0  1.183916471E+01  5.321605574E-01 -3.924875807E+01  4.099908767E+01  1.056583668E-01  0.00000E+00  9.000E+00
     -13     1     3     3     0     0 -2.559884464E+01 -4.979865931E+00 -5.140039061E+01  5.763775872E+01  1.056583668E-01  0.00000E+00  9.000E+00
       5     1     1     2   511     0  1.375967993E+01  4.447705374E+00  1.507266235E+01  2.088770033E+01  0.000000000E+00  0.00000E+00  9.000E+00
#pdf  -5  5 0.57036802E-03 0.13516120E-01 0.36094992E+02 0.78221435E+00 0.13605713E+00
#rwgt            1           1   16.316862717269792         54217137    18363384           0
</event>
<event>
      6  10013  3.31628E+03  7.01216E+00 -1.00000E+00  2.15376E-01
       3    -1     0     0   511     0  0.000000000E+00  0.000000000E+00  1.330628355E+00  1.330628355E+00  0.000000000E+00  0.00000E+00  9.000E+00
      -3    -1     0     0     0   501  0.000000000E+00  0.000000000E+00 -2.512371100E+02  2.512371100E+02  0.000000000E+00  0.00000E+00  9.000E+00
      23     2     1     2     0     0  1.330092588E+00  6.884860460E+00 -2.313274724E+02  2.327094898E+02  2.433385960E+01  0.00000E+00  9.000E+00
      13     1     3     3     0     0 -2.067699738E+00  7.881977415E+00 -2.388901036E+01  2.524077910E+01  1.056583668E-01  0.00000E+00  9.000E+00
     -13     1     3     3     0     0  3.397792326E+00 -9.971169555E-01 -2.074384620E+02  2.074687107E+02  1.056583668E-01  0.00000E+00  9.000E+00
      21     1     1     2   511   501 -1.330092588E+00 -6.884860460E+00 -1.857900928E+01  1.985824855E+01  3.371747881E-07  0.00000E+00  9.000E+00
#pdf   3 -3 0.10215229E-03 0.34299451E-01 0.24333860E+02 0.22719278E+01 0.20431637E+00
#rwgt            1           8   104.08674645401155         54217137    18363627           0
</event>
<event>
      6  10013  3.31628E+03  2.87067E+01 -1.00000E+00  1.54345E-01
      21    -1     0     0   511   501  0.000000000E+00  0.000000000E+00  8.319660534E+01  8.319660534E+01  0.000000000E+00  0.00000E+00  9.000E+00
       3    -1     0     0   501     0  0.000000000E+00  0.000000000E+00 -9.571238183E+01  9.571238183E+01  0.000000000E+00  0.00000E+00  9.000E+00
      23     2     1     2     0     0 -9.795919342E+00  2.698360550E+01 -6.817513288E+01  1.162828029E+02  8.972049102E+01  0.00000E+00  9.000E+00
      13     1     3     3     0     0 -1.847444429E+01 -2.637757394E+01 -4.125747271E+00  3.246712880E+01  1.056583668E-01  0.00000E+00  9.000E+00
     -13     1     3     3     0     0  8.678524945E+00  5.336117944E+01 -6.404938561E+01  8.381567411E+01  1.056583668E-01  0.00000E+00  9.000E+00
       3     1     1     2   511     0  9.795919342E+00 -2.698360550E+01  5.565935638E+01  6.262618426E+01  0.000000000E+00  0.00000E+00  9.000E+00
#pdf  -3  3 0.35245752E-02 0.13514183E-01 0.89720491E+02 0.82173709E+00 0.41066461E+00
#rwgt            1           3   351.75898219747563         54217137    18363725           0
</event>
<event>
      6  10013  3.31628E+03  8.83045E+01 -1.00000E+00  1.26284E-01
      21    -1     0     0   501   511  0.000000000E+00  0.000000000E+00  6.212484462E+01  6.212484462E+01  0.000000000E+00  0.00000E+00  9.000E+00
      -2    -1     0     0     0   501  0.000000000E+00  0.000000000E+00 -3.616709086E+02  3.616709086E+02  0.000000000E+00  0.00000E+00  9.000E+00
      23     2     1     2     0     0  7.411573087E+01  4.800569088E+01 -3.099103191E+02  3.348850918E+02  9.113688008E+01  0.00000E+00  9.000E+00
      13     1     3     3     0     0  8.674159383E+01  6.275096264E+01 -2.715520595E+02  2.918943638E+02  1.056583668E-01  0.00000E+00  9.000E+00
     -13     1     3     3     0     0 -1.262586296E+01 -1.474527176E+01 -3.835825961E+01  4.299072806E+01  1.056583668E-01  0.00000E+00  9.000E+00
      -2     1     1     2     0   511 -7.411573087E+01 -4.800569088E+01  1.036425516E+01  8.891066137E+01  0.000000000E+00  0.00000E+00  9.000E+00
#pdf   2 -2 0.13797189E-02 0.35621401E-01 0.91136880E+02 0.13623759E+01 0.23906613E+00
#rwgt            1           7   300.63246893507943         54217137    18363813           0
</event>
<event>
      6  10013  3.31628E+03  3.69177E+01 -1.00000E+00  1.47001E-01
       1    -1     0     0   511     0  0.000000000E+00  0.000000000E+00  2.100368386E+02  2.100368386E+02  0.000000000E+00  0.00000E+00  9.000E+00
      -1    -1     0     0     0   501  0.000000000E+00  0.000000000E+00 -3.300569710E+01  3.300569710E+01  0.000000000E+00  0.00000E+00  9.000E+00
      23     2     1     2     0     0 -2.263861475E+01 -2.916178358E+01  5.307545323E+01  1.137060399E+02  9.353685514E+01  0.00000E+00  9.000E+00
      13     1     3     3     0     0 -2.025664238E+01 -1.989289053E+01  8.012864955E+01  8.500982471E+01  1.056583668E-01  0.00000E+00  9.000E+00
     -13     1     3     3     0     0 -2.381972368E+00 -9.268893050E+00 -2.705319632E+01  2.869621517E+01  1.056583668E-01  0.00000E+00  9.000E+00
      21     1     1     2   511   501  2.263861475E+01  2.916178358E+01  1.239556882E+02  1.293364958E+02  1.348699152E-06  0.00000E+00  9.000E+00
#pdf   1 -1 0.11933490E-01 0.43382180E-02 0.93536855E+02 0.64159778E+00 0.79681397E+00
#rwgt            1           6   1443.2172988831385         54217137    18363855           0
</event>
<event>
      6  10013  3.31628E+03  5.84462E+00 -1.00000E+00  2.27176E-01
       3    -1     0     0   501     0  0.000000000E+00  0.000000000E+00  1.887003043E+02  1.887003043E+02  0.000000000E+00  0.00000E+00  9.000E+00
      21    -1     0     0   511   501  0.000000000E+00  0.000000000E+00 -5.783618669E+00  5.783618669E+00  0.000000000E+00  0.00000E+00  9.000E+00
      23     2     1     2     0     0  4.976606199E+00  3.064805290E+00  1.847849147E+02  1.883479699E+02  3.599074079E+01  0.00000E+00  9.000E+00
      13     1     3     3     0     0  3.190675553E+00  1.619804447E+01  4.494537437E+01  4.788167600E+01  1.056583668E-01  0.00000E+00  9.000E+00
     -13     1     3     3     0     0  1.785930646E+00 -1.313323918E+01  1.398395403E+02  1.404662939E+02  1.056583668E-01  0.00000E+00  9.000E+00
       3     1     1     2   511     0 -4.976606199E+00 -3.064805290E+00 -1.868229040E+00  6.135953102E+00  0.000000000E+00  0.00000E+00  9.000E+00
#pdf   3 -3 0.28331393E-01 0.27053717E-03 0.35990741E+02 0.24002042E+00 0.18663532E+01
#rwgt            1           8   138.39395994901599         54217137    18363925           0
</event>
<event>
      6  10013  3.31628E+03  8.80522E+00 -1.00000E+00  2.02307E-01
      -1    -1     0     0     0   501  0.000000000E+00  0.000000000E+00  5.205993859E+01  5.205993859E+01  0.000000000E+00  0.00000E+00  9.000E+00
       1    -1     0     0   511     0  0.000000000E+00  0.000000000E+00 -5.073835878E+01  5.073835878E+01  0.000000000E+00  0.00000E+00  9.000E+00
      23     2     1     2     0     0  1.202028596E-01 -8.804404021E+00  1.325916002E+01  8.796462620E+01  8.651264740E+01  0.00000E+00  9.000E+00
      13     1     3     3     0     0  9.679418281E+00 -1.979471706E+01 -3.288006211E+01  3.958069744E+01  1.056583668E-01  0.00000E+00  9.000E+00
     -13     1     3     3     0     0 -9.559215421E+00  1.099031303E+01  4.613922213E+01  4.838392877E+01  1.056583668E-01  0.00000E+00  9.000E+00
      21     1     1     2   511   501 -1.202028596E-01  8.804404021E+00 -1.193758021E+01  1.483367116E+01  2.384185791E-07  0.00000E+00  9.000E+00
#pdf  -1  1 0.77464255E-02 0.57170390E-02 0.86512647E+02 0.60846350E+00 0.80425178E+00
#rwgt            1           5   590.24517451551026         54217137    18363978           0
</event>
<event>
      6  10013  3.31628E+03  6.24466E+00 -1.00000E+00  2.22733E-01
       2    -1     0     0   501     0  0.000000000E+00  0.000000000E+00  1.858626734E+02  1.858626734E+02  0.000000000E+00  0.00000E+00  9.000E+00
      -2    -1     0     0     0   511  0.000000000E+00  0.000000000E+00 -1.464354026E+01  1.464354026E+01  0.000000000E+00  0.00000E+00  9.000E+00
      23     2     1     2     0     0 -2.040461839E+00  5.901893225E+00  1.652684523E+02  1.918802974E+02  9.729024308E+01  0.00000E+00  9.000E+00
      13     1     3     3     0     0  3.202722284E+01  3.610095268E+01  5.867789804E+01  7.597452645E+01  1.056583668E-01  0.00000E+00  9.000E+00
     -13     1     3     3     0     0 -3.406768468E+01 -3.019905946E+01  1.065905542E+02  1.159057710E+02  1.056583668E-01  0.00000E+00  9.000E+00
      21     1     1     2   501   511  2.040461839E+00 -5.901893225E+00  5.950680873E+00  8.625916242E+00  1.460009660E-07  0.00000E+00  9.000E+00
#pdf   2 -2 0.27416563E-01 0.20428612E-02 0.97290243E+02 0.65870578E+00 0.10933045E+01
#rwgt            1           7   562.35223594951708         54217137    18364013           0
</event>
<event>
      6  10013  3.31628E+03  1.31607E+01 -1.00000E+00  1.82858E-01
      -2    -1     0     0     0   511  0.000000000E+00  0.000000000E+00  5.470296712E+01  5.470296712E+01  0.000000000E+00  0.00000E+00  9.000E+00
       2    -1     0     0   501     0  0.000000000E+00  0.000000000E+00 -1.424783454E+01  1.424783454E+01  0.000000000E+00  0.00000E+00  9.000E+00
      23     2     1     2     0     0 -7.621263135E+00  1.072935848E+01  3.767684896E+00  2.997424970E+01  2.666565976E+01  0.00000E+00  9.000E+00
      13     1     3     3     0     0 -1.045077996E+01  5.405059898E+00  1.388261219E+01  1.819811966E+01  1.056583668E-01  0.00000E+00  9.000E+00
     -13     1     3     3     0     0  2.829516825E+00  5.324298584E+00 -1.011492730E+01  1.177613004E+01  1.056583668E-01  0.00000E+00  9.000E+00
      21     1     1     2   501   511  7.621263135E+00 -1.072935848E+01  3.668744768E+01  3.897655196E+01  4.768371582E-07  0.00000E+00  9.000E+00
#pdf  -2  2 0.23274959E-02 0.18077112E-02 0.26665660E+02 0.84449006E+00 0.10181434E+01
#rwgt            1           4   889.11491731971842         54217137    18364094           0
</event>
<event>
      5  10013  3.31628E+03  8.94427E-01 -1.00000E+00  7.34289E-01
       2    -1     0     0   501     0  0.000000000E+00  0.000000000E+00  1.490700268E+03  1.490700268E+03  0.000000000E+00  0.00000E+00  9.000E+00
      -2    -1     0     0     0   501  0.000000000E+00  0.000000000E+00 -1.462422202E-01  1.462422202E-01  0.000000000E+00  0.00000E+00  9.000E+00
      23     2     1     2     0     0  0.000000000E+00  0.000000000E+00  1.490554026E+03  1.490846510E+03  2.952987077E+01  0.00000E+00  9.000E+00
      13     1     3     3     0     0  1.023150339E+01 -6.467508468E+00  1.172115065E+03  1.172177567E+03  1.056583668E-01  0.00000E+00  9.000E+00
     -13     1     3     3     0     0 -1.023150339E+01  6.467508468E+00  3.184389606E+02  3.186689428E+02  1.056583668E-01  0.00000E+00  9.000E+00
#pdf   2 -2 0.22933850E+00 0.22498803E-04 0.29529871E+02 0.49429780E+00 0.39719990E+01
#rwgt            1           7   3696.1470383824312         54217137    18364137           0
</event>
<event>
      6  10013  3.31628E+03  9.68783E-01 -1.00000E+00  6.76987E-01
       2    -1     0     0   501     0  0.000000000E+00  0.000000000E+00  2.024758060E+00  2.024758060E+00  0.000000000E+00  0.00000E+00  9.000E+00
      -2    -1     0     0     0   511  0.000000000E+00  0.000000000E+00 -6.373164231E+01  6.373164231E+01  0.000000000E+00  0.00000E+00  9.000E+00
      23     2     1     2     0     0  9.560155830E-01  1.567659912E-01 -5.759866712E+01  6.153550126E+01  2.163499293E+01  0.00000E+00  9.000E+00
      13     1     3     3     0     0 -9.028814941E-02  2.465525759E+00  1.155623907E+00  2.726462822E+00  1.056583668E-01  0.00000E+00  9.000E+00
     -13     1     3     3     0     0  1.046303732E+00 -2.308759767E+00 -5.875429103E+01  5.880903843E+01  1.056583668E-01  0.00000E+00  9.000E+00
      21     1     1     2   501   511 -9.560155830E-01 -1.567659912E-01 -4.108217122E+00  4.220899110E+00  0.000000000E+00  0.00000E+00  9.000E+00
#pdf   2 -2 0.30253024E-03 0.91549930E-02 0.21634993E+02 0.16390975E+01 0.47394386E+00
#rwgt            1           7   1103.5511803040476         54217137    18364420           0
</event>
<event>
      6  10013  3.31628E+03  9.18708E+00 -1.00000E+00  2.00051E-01
      -4    -1     0     0     0   501  0.000000000E+00  0.000000000E+00  1.128105673E+01  1.128105673E+01  0.000000000E+00  0.00000E+00  9.000E+00
      21    -1     0     0   501   511  0.000000000E+00  0.000000000E+00 -3.151354451E+01  3.151354451E+01  0.000000000E+00  0.00000E+00  9.000E+00
      23     2     1     2     0     0  7.856982908E+00 -4.761324808E+00 -4.364723481E+00  2.445916184E+01  2.224404173E+01  0.00000E+00  9.000E+00
      13     1     3     3     0     0 -4.033697957E+00 -6.164797864E+00 -8.989683092E+00  1.162329634E+01  1.056583668E-01  0.00000E+00  9.000E+00
     -13     1     3     3     0     0  1.189068087E+01  1.403473056E+00  4.624959611E+00  1.283586550E+01  1.056583668E-01  0.00000E+00  9.000E+00
      -4     1     1     2     0   511 -7.856982908E+00  4.761324808E+00 -1.586776430E+01  1.833543941E+01  0.000000000E+00  0.00000E+00  9.000E+00
#pdf  -4  4 0.14286703E-02 0.20493148E-02 0.22244042E+02 0.70803049E+00 0.61006561E+00
#rwgt            1           2   289.57738832351617         54217137    18364555           0
</event>
<event>
      6  10013  3.31628E+03  2.48275E+01 -1.00000E+00  1.58939E-01
      21    -1     0     0   501   511  0.000000000E+00  0.000000000E+00  2.946304696E+01  2.946304696E+01  0.000000000E+00  0.00000E+00  9.000E+00
      -4    -1     0     0     0   501  0.000000000E+00  0.000000000E+00 -1.285026789E+02  1.285026789E+02  0.000000000E+00  0.00000E+00  9.000E+00
      23     2     1     2     0     0  1.276315104E+01  2.129571426E+01 -9.937949043E+01  1.331358855E+02  8.504396166E+01  0.00000E+00  9.000E+00
      13     1     3     3     0     0 -1.309926635E+01 -5.645063973E+00 -9.438637470E+01  9.545813962E+01  1.056583668E-01  0.00000E+00  9.000E+00
     -13     1     3     3     0     0  2.586241738E+01  2.694077824E+01 -4.993115725E+00  3.767774586E+01  1.056583668E-01  0.00000E+00  9.000E+00
      -4     1     1     2     0   511 -1.276315104E+01 -2.129571426E+01  3.398584696E-01  2.482984040E+01  0.000000000E+00  0.00000E+00  9.000E+00
#pdf   4 -4 0.24925985E-02 0.17169116E-01 0.85043962E+02 0.76033486E+00 0.23519800E+00
#rwgt            1           9   205.67787136101211         54217137    18364612           0
</event>
<event>
      6  10013  3.31628E+03  1.40110E+00 -1.00000E+00  4.68877E-01
       3    -1     0     0   501     0  0.000000000E+00  0.000000000E+00  2.942551894E+02  2.942551894E+02  0.000000000E+00  0.00000E+00  9.000E+00
      -3    -1     0     0     0   511  0.000000000E+00  0.000000000E+00 -7.358062903E+00  7.358062903E+00  0.000000000E+00  0.00000E+00  9.000E+00
      23     2     1     2     0     0  1.300659460E+00  5.209324389E-01  2.876005513E+02  3.000454857E+02  8.550586706E+01  0.00000E+00  9.000E+00
      13     1     3     3     0     0  3.227150509E+01  7.937737518E+00  4.826346458E+01  5.859889840E+01  1.056583668E-01  0.00000E+00  9.000E+00
     -13     1     3     3     0     0 -3.097084563E+01 -7.416805080E+00  2.393370868E+02  2.414465873E+02  1.056583668E-01  0.00000E+00  9.000E+00
      21     1     1     2   501   511 -1.300659460E+00 -5.209324389E-01 -7.034248037E-01  1.567766594E+00  3.942476677E-08  0.00000E+00  9.000E+00
#pdf   3 -3 0.45197474E-01 0.95717415E-03 0.85505867E+02 0.16601521E+00 0.14179333E+01
#rwgt            1           8   261.39374066027847         54217137    18364670           0
</event>
<event>
      6  10013  3.31628E+03  5.63187E+00 -1.00000E+00  2.29747E-01
      21    -1     0     0   501   511  0.000000000E+00  0.000000000E+00  1.761551832E+01  1.761551832E+01  0.000000000E+00  0.00000E+00  9.000E+00
      -1    -1     0     0     0   501  0.000000000E+00  0.000000000E+00 -5.292971936E+02  5.292971936E+02  0.000000000E+00  0.00000E+00  9.000E+00
      23     2     1     2     0     0 -2.566396874E+00 -5.013137859E+00 -5.247803676E+02  5.326546025E+02  9.107564683E+01  0.00000E+00  9.000E+00
      13     1     3     3     0     0 -1.264920366E+01  4.115951907E+01 -2.883039146E+02  2.915017439E+02  1.056583668E-01  0.00000E+00  9.000E+00
     -13     1     3     3     0     0  1.008280679E+01 -4.617265693E+01 -2.364764530E+02  2.411528586E+02  1.056583668E-01  0.00000E+00  9.000E+00
      -1     1     1     2     0   511  2.566396874E+00  5.013137859E+00  1.309869229E+01  1.425810941E+01  0.000000000E+00  0.00000E+00  9.000E+00
#pdf   1 -1 0.60455562E-03 0.81186078E-01 0.91075647E+02 0.18027440E+01 0.14277793E+00
#rwgt            1           6   363.14247463268856         54217137    18364894           0
</event>
<event>
      6  10013  3.31628E+03  1.14569E+02 -1.00000E+00  1.21207E-01
       2    -1     0     0   501     0  0.000000000E+00  0.000000000E+00  1.554959860E+03  1.554959860E+03  0.000000000E+00  0.00000E+00  9.000E+00
      21    -1     0     0   511   501  0.000000000E+00  0.000000000E+00 -1.281312938E+01  1.281312938E+01  0.000000000E+00  0.00000E+00  9.000E+00
      23     2     1     2     0     0  5.814081130E+01  9.872050269E+01  1.140337767E+03  1.149949421E+03  9.427276868E+01  0.00000E+00  9.000E+00
      13     1     3     3     0     0  3.285774437E+01 -5.121237234E+00  4.670007376E+02  4.681832532E+02  1.056583668E-01  0.00000E+00  9.000E+00
     -13     1     3     3     0     0  2.528306693E+01  1.038417399E+02  6.733370297E+02  6.817661675E+02  1.056583668E-01  0.00000E+00  9.000E+00
       2     1     1     2   511     0 -5.814081130E+01 -9.872050269E+01  4.018089632E+02  4.178235687E+02  0.000000000E+00  0.00000E+00  9.000E+00
#pdf   2 -2 0.11194091E+00 0.46978267E-03 0.94272769E+02 0.59199936E+00 0.19521191E+01
#rwgt            1           7   1827.5087555189302         54217137    18364957           0
</event>
<event>
      6  10013  3.31628E+03  7.78021E+00 -1.00000E+00  2.09198E-01
      -2    -1     0     0     0   501  0.000000000E+00  0.000000000E+00  7.345161511E+00  7.345161511E+00  0.000000000E+00  0.00000E+00  9.000E+00
      21    -1     0     0   501   511  0.000000000E+00  0.000000000E+00 -6.193714748E+01  6.193714748E+01  0.000000000E+00  0.00000E+00  9.000E+00
      23     2     1     2     0     0  7.366124160E+00 -2.504358773E+00 -1.043841383E+01  2.444851001E+01  2.069390153E+01  0.00000E+00  9.000E+00
      13     1     3     3     0     0  1.086960168E+01 -2.320773274E+00 -1.501472391E+01  1.868120250E+01  1.056583668E-01  0.00000E+00  9.000E+00
     -13     1     3     3     0     0 -3.503477516E+00 -1.835854992E-01  4.576310077E+00  5.767307514E+00  1.056583668E-01  0.00000E+00  9.000E+00
      -2     1     1     2     0   511 -7.366124160E+00  2.504358773E+00 -4.415357214E+01  4.483379898E+01  0.000000000E+00  0.00000E+00  9.000E+00
#pdf  -2  2 0.10087609E-02 0.25119431E-02 0.20693902E+02 0.10723388E+01 0.88837117E+00
#rwgt            1           4   746.60937104202753         54217137    18365021           0
</event>
<event>
      6  10013  3.31628E+03  6.31113E+00 -1.00000E+00  2.22039E-01
       1    -1     0     0   511     0  0.000000000E+00  0.000000000E+00  2.462136685E+01  2.462136685E+01  0.000000000E+00  0.00000E+00  9.000E+00
      -1    -1     0     0     0   501  0.000000000E+00  0.000000000E+00 -1.078512989E+01  1.078512989E+01  0.000000000E+00  0.00000E+00  9.000E+00
      23     2     1     2     0     0 -3.980060476E+00  4.897911651E+00  1.361457739E+00  2.142613421E+01  2.043025306E+01  0.00000E+00  9.000E+00
      13     1     3     3     0     0 -9.193402440E+00 -2.579161751E+00 -4.533430290E+00  1.057042467E+01  1.056583668E-01  0.00000E+00  9.000E+00
     -13     1     3     3     0     0  5.213341964E+00  7.477073402E+00  5.894888028E+00  1.085570954E+01  1.056583668E-01  0.00000E+00  9.000E+00
      21     1     1     2   511   501  3.980060476E+00 -4.897911651E+00  1.247477922E+01  1.398036253E+01  2.920019320E-07  0.00000E+00  9.000E+00
#pdf   1 -1 0.16748022E-02 0.14746782E-02 0.20430253E+02 0.95900597E+00 0.94786542E+00
#rwgt            1           6   203.90593796022864         54217137    18365070           0
</event>
<event>
      6  10013  3.31628E+03  8.92744E+00 -1.00000E+00  2.01569E-01
       2    -1     0     0   501     0  0.000000000E+00  0.000000000E+00  1.620096660E+03  1.620096660E+03  0.000000000E+00  0.00000E+00  9.000E+00
      21    -1     0     0   511   501  0.000000000E+00  0.000000000E+00 -1.782466503E+00  1.782466503E+00  0.000000000E+00  0.00000E+00  9.000E+00
      23     2     1     2     0     0 -4.394307919E+00  7.771052080E+00  1.572164139E+03  1.574873524E+03  9.190666747E+01  0.00000E+00  9.000E+00
      13     1     3     3     0     0 -1.441170850E+01  9.897349662E+00  1.553385266E+03  1.553483650E+03  1.056583668E-01  0.00000E+00  9.000E+00
     -13     1     3     3     0     0  1.001740058E+01 -2.126297582E+00  1.877887394E+01  2.138987438E+01  1.056583668E-01  0.00000E+00  9.000E+00
       2     1     1     2   511     0  4.394307919E+00 -7.771052080E+00  4.615005361E+01  4.700560223E+01  0.000000000E+00  0.00000E+00  9.000E+00
#pdf   2 -2 0.24094578E+00 0.20743785E-03 0.91906667E+02 0.43150241E+00 0.26298446E+01
#rwgt            1           7   2412.4887847783789         54217137    18365122           0
</event>
<event>
      6  10013  3.31628E+03  4.78414E+00 -1.00000E+00  2.46308E-01
      21    -1     0     0   511   501  0.000000000E+00  0.000000000E+00  9.138354541E+01  9.138354541E+01  0.000000000E+00  0.00000E+00  9.000E+00
       1    -1     0     0   501     0  0.000000000E+00  0.000000000E+00 -1.985964803E+02  1.985964803E+02  0.000000000E+00  0.00000E+00  9.000E+00
      23     2     1     2     0     0  1.572124906E-01 -4.781556340E+00 -1.881606231E+02  2.088910856E+02  9.059899317E+01  0.00000E+00  9.000E+00
      13     1     3     3     0     0  5.662490697E+00 -4.647149551E+01 -1.199185592E+02  1.287328074E+02  1.056583668E-01  0.00000E+00  9.000E+00
     -13     1     3     3     0     0 -5.505278206E+00  4.168993917E+01 -6.824206393E+01  8.015827824E+01  1.056583668E-01  0.00000E+00  9.000E+00
       1     1     1     2   511     0 -1.572124906E-01  4.781556340E+00  8.094768816E+01  8.108894016E+01  0.000000000E+00  0.00000E+00  9.000E+00
#pdf  -1  1 0.15924323E-02 0.30499945E-01 0.90598993E+02 0.12094558E+01 0.49982148E+00
#rwgt            1           5   797.96283214642665         54217137    18365211           0
</event>
<event>
      6  10013  3.31628E+03  3.06279E+00 -1.00000E+00  2.94028E-01
       2    -1     0     0   511     0  0.000000000E+00  0.000000000E+00  3.268130257E-01  3.268130257E-01  0.000000000E+00  0.00000E+00  9.000E+00
      -2    -1     0     0     0   501  0.000000000E+00  0.000000000E+00 -4.689481866E+02  4.689481866E+02  0.000000000E+00  0.00000E+00  9.000E+00
      23     2     1     2     0     0 -2.723664623E+00  1.400829614E+00 -4.114955100E+02  4.120670897E+02  2.147908203E+01  0.00000E+00  9.000E+00
      13     1     3     3     0     0  8.168520038E+00  1.458777015E+00 -2.794032676E+02  2.795264743E+02  1.056583668E-01  0.00000E+00  9.000E+00
     -13     1     3     3     0     0 -1.089218466E+01 -5.794740075E-02 -1.320922424E+02  1.325406153E+02  1.056583668E-01  0.00000E+00  9.000E+00
      21     1     1     2   511   501  2.723664623E+00 -1.400829614E+00 -5.712586362E+01  5.720791000E+01  9.536743164E-07  0.00000E+00  9.000E+00
#pdf   2 -2 0.43527372E-04 0.62716568E-01 0.21479082E+02 0.29119932E+01 0.14977563E+00
#rwgt            1           7   525.76412597458636         54217137    18365308           0
</event>
<event>
      6  10013  3.31628E+03  1.55964E+00 -1.00000E+00  4.22061E-01
      -1    -1     0     0     0   511  0.000000000E+00  0.000000000E+00  7.066143418E+00  7.066143418E+00  0.000000000E+00  0.00000E+00  9.000E+00
       1    -1     0     0   501     0  0.000000000E+00  0.000000000E+00 -3.273438582E+02  3.273438582E+02  0.000000000E+00  0.00000E+00  9.000E+00
      23     2     1     2     0     0 -7.706344971E-01  1.355944940E+00 -3.186214589E+02  3.321349966E+02  9.376347607E+01  0.00000E+00  9.000E+00
      13     1     3     3     0     0  1.275446818E+01 -7.362979426E+00 -1.722763149E+00  1.482798035E+01  1.056583668E-01  0.00000E+00  9.000E+00
     -13     1     3     3     0     0 -1.352510268E+01  8.718924366E+00 -3.168986958E+02  3.173070163E+02  1.056583668E-01  0.00000E+00  9.000E+00
      21     1     1     2   501   511  7.706344971E-01 -1.355944940E+00 -1.656255898E+00  2.275005013E+00  3.650024150E-08  0.00000E+00  9.000E+00
#pdf  -1  1 0.10393591E-02 0.50051265E-01 0.93763476E+02 0.14410771E+01 0.44443559E+00
#rwgt            1           5   687.96194850405402         54217137    18365488           0
</event>
<event>
      6  10013  3.31628E+03  2.38365E+01 -1.00000E+00  1.60278E-01
       2    -1     0     0   501     0  0.000000000E+00  0.000000000E+00  2.006143321E+03  2.006143321E+03  0.000000000E+00  0.00000E+00  9.000E+00
      21    -1     0     0   511   501  0.000000000E+00  0.000000000E+00 -3.023137882E+00  3.023137882E+00  0.000000000E+00  0.00000E+00  9.000E+00
      23     2     1     2     0     0  6.351468675E+00  2.297468018E+01  8.744861688E+02  8.802807626E+02  9.797951025E+01  0.00000E+00  9.000E+00
      13     1     3     3     0     0  3.343447773E+01  2.231433582E+01  8.001972048E+02  8.012061980E+02  1.056583668E-01  0.00000E+00  9.000E+00
     -13     1     3     3     0     0 -2.708300906E+01  6.603443598E-01  7.428896401E+01  7.907456463E+01  1.056583668E-01  0.00000E+00  9.000E+00
       2     1     1     2   511     0 -6.351468675E+00 -2.297468018E+01  1.128634015E+03  1.128885697E+03  0.000000000E+00  0.00000E+00  9.000E+00
#pdf   2 -2 0.13115660E+00 0.43310549E-03 0.97979510E+02 0.57295937E+00 0.20278147E+01
#rwgt            1           7   2205.2367788461220         54217137    18365720           0
</event>
<event>
      6  10013  3.31628E+03  1.42617E+01 -1.00000E+00  1.79425E-01
      21    -1     0     0   511   501  0.000000000E+00  0.000000000E+00  1.605739365E+01  1.605739365E+01  0.000000000E+00  0.00000E+00  9.000E+00
       1    -1     0     0   501     0  0.000000000E+00  0.000000000E+00 -3.908696042E+02  3.908696042E+02  0.000000000E+00  0.00000E+00  9.000E+00
      23     2     1     2     0     0 -3.560525150E+00 -1.381014553E+01 -3.799824886E+02  3.917569869E+02  9.425204341E+01  0.00000E+00  9.000E+00
      13     1     3     3     0     0 -4.099973929E+00  1.710355413E+01 -9.506672588E+00  1.999323229E+01  1.056583668E-01  0.00000E+00  9.000E+00
     -13     1     3     3     0     0  5.394487782E-01 -3.091369966E+01 -3.704758160E+02  3.717637546E+02  1.056583668E-01  0.00000E+00  9.000E+00
       1     1     1     2   511     0  3.560525150E+00  1.381014553E+01  5.170278006E+00  1.517001099E+01  0.000000000E+00  0.00000E+00  9.000E+00
#pdf  -1  1 0.89553646E-03 0.58696415E-01 0.94252043E+02 0.15290369E+01 0.42696594E+00
#rwgt            1           5   676.23915388530054         54217137    18365757           0
</event>
<event>
      6  10013  3.31628E+03  1.44980E+01 -1.00000E+00  1.78739E-01
      21    -1     0     0   511   501  0.000000000E+00  0.000000000E+00  9.913054155E+01  9.913054155E+01  0.000000000E+00  0.00000E+00  9.000E+00
       1    -1     0     0   501     0  0.000000000E+00  0.000000000E+00 -2.931571339E+01  2.931571339E+01  0.000000000E+00  0.00000E+00  9.000E+00
      23     2     1     2     0     0 -1.399683255E+01  3.778926808E+00  4.793231033E+01  1.021967560E+02  8.908691795E+01  0.00000E+00  9.000E+00
      13     1     3     3     0     0  2.685997155E+01 -2.658114299E+01  2.992615589E+01  4.820374679E+01  1.056583668E-01  0.00000E+00  9.000E+00
     -13     1     3     3     0     0 -4.085680410E+01  3.036006980E+01  1.800615444E+01  5.399300919E+01  1.056583668E-01  0.00000E+00  9.000E+00
       1     1     1     2   511     0  1.399683255E+01 -3.778926808E+00  2.188251784E+01  2.624949897E+01  0.000000000E+00  0.00000E+00  9.000E+00
#pdf  -1  1 0.11398437E-01 0.41199873E-02 0.89086918E+02 0.50666145E+00 0.90110437E+00
#rwgt            1           5   484.74532751016500         54217137    18365859           0
</event>
<event>
      6  10013  3.31628E+03  7.93856E+00 -1.00000E+00  2.08043E-01
      21    -1     0     0   501   511  0.000000000E+00  0.000000000E+00  4.120872066E+03  4.120872066E+03  0.000000000E+00  0.00000E+00  9.000E+00
      -3    -1     0     0     0   501  0.000000000E+00  0.000000000E+00 -1.216934452E+00  1.216934452E+00  0.000000000E+00  0.00000E+00  9.000E+00
      23     2     1     2     0     0 -7.488542794E+00 -2.634853284E+00  1.677469353E+03  1.679890319E+03  8.980553592E+01  0.00000E+00  9.000E+00
      13     1     3     3     0     0 -2.205922579E+01 -3.892863595E+01  1.195405171E+03  1.196242276E+03  1.056583668E-01  0.00000E+00  9.000E+00
     -13     1     3     3     0     0  1.457068300E+01  3.629378266E+01  4.820641819E+02  4.836480436E+02  1.056583668E-01  0.00000E+00  9.000E+00
      -3     1     1     2     0   511  7.488542794E+00  2.634853284E+00  2.442185779E+03  2.442198681E+03  0.000000000E+00  0.00000E+00  9.000E+00
#pdf   3 -3 0.25725529E+00 0.18550482E-03 0.89805536E+02 0.82495344E-02 0.26667531E+01
#rwgt            1           8   44.750322510505761         54217137    18365989           0
</event>
<event>
      6  10013  3.31628E+03  2.38868E+01 -1.00000E+00  1.60208E-01
      21    -1     0     0   511   501  0.000000000E+00  0.000000000E+00  9.888589905E+01  9.888589905E+01  0.000000000E+00  0.00000E+00  9.000E+00
       1    -1     0     0   501     0  0.000000000E+00  0.000000000E+00 -1.390611632E+02  1.390611632E+02  0.000000000E+00  0.00000E+00  9.000E+00
      23     2     1     2     0     0  2.349659117E+01 -4.299787440E+00 -1.223888950E+02  1.523336341E+02  8.749809414E+01  0.00000E+00  9.000E+00
      13     1     3     3     0     0  1.521427209E+01 -1.284063743E+01  7.961167598E+00  2.144172097E+01  1.056583668E-01  0.00000E+00  9.000E+00
     -13     1     3     3     0     0  8.282319074E+00  8.540849995E+00 -1.303500626E+02  1.308919131E+02  1.056583668E-01  0.00000E+00  9.000E+00
       1     1     1     2   511     0 -2.349659117E+01  4.299787440E+00  8.221363092E+01  8.561342813E+01  0.000000000E+00  0.00000E+00  9.000E+00
#pdf  -1  1 0.22221244E-02 0.20386474E-01 0.87498094E+02 0.10507076E+01 0.55160776E+00
#rwgt            1           5   567.41177795690476         54217137    18366084           0
</event>
<event>
      6  10013  3.31628E+03  1.10774E+00 -1.00000E+00  5.81611E-01
      -2    -1     0     0     0   501  0.000000000E+00  0.000000000E+00  4.665967364E-01  4.665967364E-01  0.000000000E+00  0.00000E+00  9.000E+00
       2    -1     0     0   511     0  0.000000000E+00  0.000000000E+00 -7.761315668E+02  7.761315668E+02  0.000000000E+00  0.00000E+00  9.000E+00
      23     2     1     2     0     0 -1.103264262E+00  9.947299688E-02 -7.381917809E+02  7.391086050E+02  3.678583468E+01  0.00000E+00  9.000E+00
      13     1     3     3     0     0  1.530461100E+01 -6.444713869E-01 -1.726175596E+02  1.732959304E+02  1.056583668E-01  0.00000E+00  9.000E+00
     -13     1     3     3     0     0 -1.640787526E+01  7.439443838E-01 -5.655742213E+02  5.658126746E+02  1.056583668E-01  0.00000E+00  9.000E+00
      21     1     1     2   511   501  1.103264262E+00 -9.947299688E-02 -3.747318918E+01  3.748955847E+01  6.743495762E-07  0.00000E+00  9.000E+00
#pdf  -2  2 0.70492983E-04 0.11358700E+00 0.36785835E+02 0.30006816E+01 0.60939364E+00
#rwgt            1           4   3729.9650356637831         54217137    18366117           0
</event>
<event>
      6  10013  3.31628E+03  2.77044E+01 -1.00000E+00  1.55444E-01
      21    -1     0     0   501   511  0.000000000E+00  0.000000000E+00  1.179166342E+02  1.179166342E+02  0.000000000E+00  0.00000E+00  9.000E+00
      -2    -1     0     0     0   501  0.000000000E+00  0.000000000E+00 -4.071297203E+01  4.071297203E+01  0.000000000E+00  0.00000E+00  9.000E+00
      23     2     1     2     0     0 -1.911970710E+01 -2.004923858E+01  2.464237360E+01  9.921391618E+01  9.202510212E+01  0.00000E+00  9.000E+00
      13     1     3     3     0     0 -3.203442644E+01 -3.434906188E+01 -1.964855917E+01  5.091305894E+01  1.056583668E-01  0.00000E+00  9.000E+00
     -13     1     3     3     0     0  1.291471934E+01  1.429982329E+01  4.429093277E+01  4.830085725E+01  1.056583668E-01  0.00000E+00  9.000E+00
      -2     1     1     2     0   511  1.911970710E+01  2.004923858E+01  5.256128857E+01  5.941569005E+01  0.000000000E+00  0.00000E+00  9.000E+00
#pdf   2 -2 0.91229527E-02 0.54927583E-02 0.92025102E+02 0.77849699E+00 0.70133599E+00
#rwgt            1           7   438.52856221514975         54217137    18366526           0
</event>
<event>
      6  10013  3.31628E+03  1.05014E+01 -1.00000E+00  1.93276E-01
      21    -1     0     0   501   511  0.000000000E+00  0.000000000E+00  4.279422342E+01  4.279422342E+01  0.000000000E+00  0.00000E+00  9.000E+00
      -5    -1     0     0     0   501  0.000000000E+00  0.000000000E+00 -4.302301556E+01  4.302301556E+01  0.000000000E+00  0.00000E+00  9.000E+00
      23     2     1     2     0     0  5.609153369E+00  8.877913651E+00 -2.037369604E+01  6.309946828E+01  5.878924608E+01  0.00000E+00  9.000E+00
      13     1     3     3     0     0  2.425824017E+01  1.936377172E+00 -3.188473621E+01  4.011058887E+01  1.056583668E-01  0.00000E+00  9.000E+00
     -13     1     3     3     0     0 -1.864908680E+01  6.941536479E+00  1.151104017E+01  2.298887941E+01  1.056583668E-01  0.00000E+00  9.000E+00
      -5     1     1     2     0   511 -5.609153369E+00 -8.877913651E+00  2.014490391E+01  2.271777070E+01  0.000000000E+00  0.00000E+00  9.000E+00
#pdf   5 -5 0.32353857E-02 0.63209596E-02 0.58789246E+02 0.40336022E+00 0.26979929E+00
#rwgt            1          10   44.910731405315154         54217137    18366576           0
</event>
<event>
      6  10013  3.31628E+03  1.00689E+00 -1.00000E+00  6.46253E-01
      -1    -1     0     0     0   511  0.000000000E+00  0.000000000E+00  3.661210422E+00  3.661210422E+00  0.000000000E+00  0.00000E+00  9.000E+00
       1    -1     0     0   501     0  0.000000000E+00  0.000000000E+00 -6.212163702E+02  6.212163702E+02  0.000000000E+00  0.00000E+00  9.000E+00
      23     2     1     2     0     0 -9.605390502E-01 -3.019947732E-01 -6.156376436E+02  6.227117772E+02  9.359078711E+01  0.00000E+00  9.000E+00
      13     1     3     3     0     0 -2.487784468E+00  2.310306849E+01 -3.761585854E+01  4.421430563E+01  1.056583668E-01  0.00000E+00  9.000E+00
     -13     1     3     3     0     0  1.527245417E+00 -2.340506326E+01 -5.780217850E+02  5.784974715E+02  1.056583668E-01  0.00000E+00  9.000E+00
      21     1     1     2   501   511  9.605390502E-01  3.019947732E-01 -1.917516212E+00  2.165803438E+00  8.161702119E-08  0.00000E+00  9.000E+00
#pdf  -1  1 0.54413264E-03 0.95252135E-01 0.93590787E+02 0.18498135E+01 0.36774869E+00
#rwgt            1           5   815.50278720058827         54217137    18366965           0
</event>
<event>
      6  10013  3.31628E+03  2.41968E+00 -1.00000E+00  3.28239E-01
       2    -1     0     0   501     0  0.000000000E+00  0.000000000E+00  1.379411852E+03  1.379411852E+03  0.000000000E+00  0.00000E+00  9.000E+00
      21    -1     0     0   511   501  0.000000000E+00  0.000000000E+00 -2.195794351E-01  2.195794351E-01  0.000000000E+00  0.00000E+00  9.000E+00
      23     2     1     2     0     0 -1.135130886E+00  2.136898619E+00  1.362469838E+03  1.362734844E+03  2.676452909E+01  0.00000E+00  9.000E+00
      13     1     3     3     0     0  2.591123099E-01  2.533425149E+00  1.358579455E+03  1.358581846E+03  1.056583668E-01  0.00000E+00  9.000E+00
     -13     1     3     3     0     0 -1.394243196E+00 -3.965265304E-01  3.890383345E+00  4.152998150E+00  1.056583668E-01  0.00000E+00  9.000E+00
       2     1     1     2   511     0  1.135130886E+00 -2.136898619E+00  1.672243391E+01  1.689658704E+01  0.000000000E+00  0.00000E+00  9.000E+00
#pdf   2 -2 0.20877966E+00 0.20302257E-04 0.26764529E+02 0.52605106E+00 0.39503240E+01
#rwgt            1           7   3588.4826389447617         54217137    18367323           0
</event>
<event>
      6  10013  3.31628E+03  3.44439E+00 -1.00000E+00  2.79653E-01
      -2    -1     0     0     0   511  0.000000000E+00  0.000000000E+00  1.470655855E+00  1.470655855E+00  0.000000000E+00  0.00000E+00  9.000E+00
       2    -1     0     0   501     0  0.000000000E+00  0.000000000E+00 -2.382530969E+03  2.382530969E+03  0.000000000E+00  0.00000E+00  9.000E+00
      23     2     1     2     0     0 -1.088879376E+00  3.267745721E+00 -2.376632302E+03  2.378391714E+03  9.140120792E+01  0.00000E+00  9.000E+00
      13     1     3     3     0     0  2.651486038E+00  1.411742273E+01 -2.339095319E+03  2.339139426E+03  1.056583668E-01  0.00000E+00  9.000E+00
     -13     1     3     3     0     0 -3.740365414E+00 -1.084967701E+01 -3.753698301E+01  3.925228760E+01  1.056583668E-01  0.00000E+00  9.000E+00
      21     1     1     2   501   511  1.088879376E+00 -3.267745721E+00 -4.428010859E+00  5.609910923E+00  4.986882368E-07  0.00000E+00  9.000E+00
#pdf  -2  2 0.13524336E-03 0.36551164E+00 0.91401208E+02 0.30635777E+01 0.25147426E+00
#rwgt            1           4   2065.8665683355766         54217137    18367455           0
</event>
<event>
      6  10013  3.31628E+03  8.22090E+00 -1.00000E+00  2.06071E-01
      21    -1     0     0   511   501  0.000000000E+00  0.000000000E+00  3.022232759E-01  3.022232759E-01  0.000000000E+00  0.00000E+00  9.000E+00
       2    -1     0     0   501     0  0.000000000E+00  0.000000000E+00 -1.221060464E+03  1.221060464E+03  0.000000000E+00  0.00000E+00  9.000E+00
      23     2     1     2     0     0  7.313676153E+00  3.754118790E+00 -9.714828836E+02  9.719518076E+02  2.904719891E+01  0.00000E+00  9.000E+00
      13     1     3     3     0     0 -9.595460952E+00  2.397343223E+00 -1.686980242E+02  1.689877352E+02  1.056583668E-01  0.00000E+00  9.000E+00
     -13     1     3     3     0     0  1.690913710E+01  1.356775567E+00 -8.027848595E+02  8.029640724E+02  1.056583668E-01  0.00000E+00  9.000E+00
       2     1     1     2   511     0 -7.313676153E+00 -3.754118790E+00 -2.492753567E+02  2.494108793E+02  0.000000000E+00  0.00000E+00  9.000E+00
#pdf  -2  2 0.34707803E-04 0.14384497E+00 0.29047199E+02 0.34631037E+01 0.59310830E+00
#rwgt            1           4   2981.9721202122087         54217137    18367710           0
</event>
<event>
      6  10013  3.31628E+03  1.15967E+01 -1.00000E+00  1.88549E-01
       1    -1     0     0   501     0  0.000000000E+00  0.000000000E+00  2.466342513E+02  2.466342513E+02  0.000000000E+00  0.00000E+00  9.000E+00
      -1    -1     0     0     0   511  0.000000000E+00  0.000000000E+00 -7.983271709E+01  7.983271709E+01  0.000000000E+00  0.00000E+00  9.000E+00
      23     2     1     2     0     0  1.054225387E+01  4.831510637E+00  2.333663478E+02  2.588995427E+02  1.115107095E+02  0.00000E+00  9.000E+00
      13     1     3     3     0     0 -4.950824547E+00  4.577113347E+01  1.960377158E+02  2.013710618E+02  1.056583668E-01  0.00000E+00  9.000E+00
     -13     1     3     3     0     0  1.549307842E+01 -4.093962283E+01  3.732863194E+01  5.752848097E+01  1.056583668E-01  0.00000E+00  9.000E+00
      21     1     1     2   501   511 -1.054225387E+01 -4.831510637E+00 -6.656481354E+01  6.756742568E+01  9.536743164E-07  0.00000E+00  9.000E+00
#pdf   1 -1 0.37663486E-01 0.19535563E-02 0.11151071E+03 0.47614242E+00 0.11445250E+01
#rwgt            1           6   973.18366068849548         54217137    18367770           0
</event>
<event>
      6  10013  3.31628E+03  4.13355E+00 -1.00000E+00  2.60049E-01
       2    -1     0     0   501     0  0.000000000E+00  0.000000000E+00  1.811151039E+03  1.811151039E+03  0.000000000E+00  0.00000E+00  9.000E+00
      21    -1     0     0   511   501  0.000000000E+00  0.000000000E+00 -2.849090181E+00  2.849090181E+00  0.000000000E+00  0.00000E+00  9.000E+00
      23     2     1     2     0     0 -1.255802230E+00  3.938168369E+00  1.807443915E+03  1.809778467E+03  9.180145491E+01  0.00000E+00  9.000E+00
      13     1     3     3     0     0 -2.804979624E+01  2.496527484E+01  1.497149977E+03  1.497620820E+03  1.056583668E-01  0.00000E+00  9.000E+00
     -13     1     3     3     0     0  2.679399401E+01 -2.102710647E+01  3.102939382E+02  3.121576470E+02  1.056583668E-01  0.00000E+00  9.000E+00
       2     1     1     2   511     0  1.255802230E+00 -3.938168369E+00  8.580336474E-01  4.221662123E+00  0.000000000E+00  0.00000E+00  9.000E+00
#pdf   2 -2 0.27796624E+00 0.17939915E-03 0.91801455E+02 0.37635031E+00 0.27712551E+01
#rwgt            1           7   1460.6418873566597         54217137    18367888           0
</event>
<event>
      6  10013  3.31628E+03  2.56790E+00 -1.00000E+00  3.18829E-01
       1    -1     0     0   511     0  0.000000000E+00  0.000000000E+00  2.091154576E+03  2.091154576E+03  0.000000000E+00  0.00000E+00  9.000E+00
      -1    -1     0     0     0   501  0.000000000E+00  0.000000000E+00 -1.294099591E+00  1.294099591E+00  0.000000000E+00  0.00000E+00  9.000E+00
      23     2     1     2     0     0  7.398473365E-01 -2.459014007E+00  1.551498228E+03  1.554080303E+03  8.951113045E+01  0.00000E+00  9.000E+00
      13     1     3     3     0     0  1.493127223E+01 -4.317444769E+01  6.977073200E+02  6.992013239E+02  1.056583668E-01  0.00000E+00  9.000E+00
     -13     1     3     3     0     0 -1.419142490E+01  4.071543368E+01  8.537909080E+02  8.548789791E+02  1.056583668E-01  0.00000E+00  9.000E+00
      21     1     1     2   511   501 -7.398473365E-01  2.459014007E+00  5.383622480E+02  5.383683722E+02  1.321449896E-05  0.00000E+00  9.000E+00
#pdf   1 -1 0.23879241E+00 0.19853947E-03 0.89511130E+02 0.18866486E+00 0.26613942E+01
#rwgt            1           6   956.10346238252021         54217137    18368008           0
</event>
<event>
      6  10013  3.31628E+03  4.49899E+01 -1.00000E+00  1.41713E-01
      -2    -1     0     0     0   511  0.000000000E+00  0.000000000E+00  2.153561054E+02  2.153561054E+02  0.000000000E+00  0.00000E+00  9.000E+00
       2    -1     0     0   501     0  0.000000000E+00  0.000000000E+00 -3.053570776E+01  3.053570776E+01  0.000000000E+00  0.00000E+00  9.000E+00
      23     2     1     2     0     0  4.398932728E+01 -9.435765283E+00  7.398515371E+01  1.262734790E+02  9.190807329E+01  0.00000E+00  9.000E+00
      13     1     3     3     0     0  4.835508005E+01 -1.401290954E+01  9.326317501E+01  1.059839911E+02  1.056583668E-01  0.00000E+00  9.000E+00
     -13     1     3     3     0     0 -4.365752769E+00  4.577144255E+00 -1.927802130E+01  2.028948782E+01  1.056583668E-01  0.00000E+00  9.000E+00
      21     1     1     2   501   511 -4.398932728E+01  9.435765283E+00  1.108352440E+02  1.196183343E+02  1.348699152E-06  0.00000E+00  9.000E+00
#pdf  -2  2 0.13835777E-01 0.36125765E-02 0.91908073E+02 0.43869517E+00 0.99568746E+00
#rwgt            1           4   341.13624322074281         54217137    18368184           0
</event>
<event>
      6  10013  3.31628E+03  1.11911E+01 -1.00000E+00  1.90217E-01
       1    -1     0     0   501     0  0.000000000E+00  0.000000000E+00  5.314508220E+01  5.314508220E+01  0.000000000E+00  0.00000E+00  9.000E+00
      21    -1     0     0   511   501  0.000000000E+00  0.000000000E+00 -1.901123223E+01  1.901123223E+01  0.000000000E+00  0.00000E+00  9.000E+00
      23     2     1     2     0     0 -5.743845201E+00  9.604681059E+00  4.723638640E+01  5.492500232E+01  2.569509727E+01  0.00000E+00  9.000E+00
      13     1     3     3     0     0  2.646285623E+00  3.617895412E+00 -1.789261419E+00  4.827485363E+00  1.056583668E-01  0.00000E+00  9.000E+00
     -13     1     3     3     0     0 -8.390130825E+00  5.986785648E+00  4.902564782E+01  5.009751696E+01  1.056583668E-01  0.00000E+00  9.000E+00
       1     1     1     2   511     0  5.743845201E+00 -9.604681059E+00 -1.310253643E+01  1.723131210E+01  0.000000000E+00  0.00000E+00  9.000E+00
#pdf   1 -1 0.72048712E-02 0.54223507E-03 0.25695097E+02 0.66171886E+00 0.13999306E+01
#rwgt            1           6   240.64564716148911         54217137    18368247           0
</event>
<event>
      6  10013  3.31628E+03  6.34136E+00 -1.00000E+00  2.21728E-01
      -1    -1     0     0     0   501  0.000000000E+00  0.000000000E+00  2.299970901E+00  2.299970901E+00  0.000000000E+00  0.00000E+00  9.000E+00
      21    -1     0     0   501   511  0.000000000E+00  0.000000000E+00 -1.114317927E+02  1.114317927E+02  0.000000000E+00  0.00000E+00  9.000E+00
      23     2     1     2     0     0 -5.062041827E+00 -3.819495209E+00 -9.958152052E+01  1.022678609E+02  2.240587713E+01  0.00000E+00  9.000E+00
      13     1     3     3     0     0 -6.730320643E+00  6.365814408E+00 -7.551748444E+01  7.608365415E+01  1.056583668E-01  0.00000E+00  9.000E+00
     -13     1     3     3     0     0  1.668278816E+00 -1.018530962E+01 -2.406403608E+01  2.618420673E+01  1.056583668E-01  0.00000E+00  9.000E+00
      -1     1     1     2     0   511  5.062041827E+00  3.819495209E+00 -9.550301322E+00  1.146390276E+01  0.000000000E+00  0.00000E+00  9.000E+00
#pdf  -1  1 0.19883160E-03 0.14940041E-01 0.22405877E+02 0.18578187E+01 0.55056735E+00
#rwgt            1           5   225.07187932900695         54217137    18368288           0
</event>
<event>
      6  10013  3.31628E+03  1.38555E+01 -1.00000E+00  1.80644E-01
       4    -1     0     0   511     0  0.000000000E+00  0.000000000E+00  3.316675800E+02  3.316675800E+02  0.000000000E+00  0.00000E+00  9.000E+00
      -4    -1     0     0     0   501  0.000000000E+00  0.000000000E+00 -8.615619062E+00  8.615619062E+00  0.000000000E+00  0.00000E+00  9.000E+00
      23     2     1     2     0     0  2.923865028E+00  1.354352851E+01  2.653811825E+02  2.809713551E+02  9.124557084E+01  0.00000E+00  9.000E+00
      13     1     3     3     0     0  1.304587871E-01 -2.157088849E+01  2.301230510E+02  2.311318888E+02  1.056583668E-01  0.00000E+00  9.000E+00
     -13     1     3     3     0     0  2.793406241E+00  3.511441700E+01  3.525813152E+01  4.983946631E+01  1.056583668E-01  0.00000E+00  9.000E+00
      21     1     1     2   511   501 -2.923865028E+00 -1.354352851E+01  5.767077846E+01  5.931184401E+01  6.743495762E-07  0.00000E+00  9.000E+00
#pdf   4 -4 0.41550807E-01 0.11856525E-02 0.91245571E+02 0.10469787E+00 0.10920567E+01
#rwgt            1           9   115.99277133219074         54217137    18368355           0
</event>
<event>
      6  10013  3.31628E+03  1.11928E+01 -1.00000E+00  1.90210E-01
      -5    -1     0     0     0   501  0.000000000E+00  0.000000000E+00  7.233515563E+01  7.233515563E+01  0.000000000E+00  0.00000E+00  9.000E+00
      21    -1     0     0   501   511  0.000000000E+00  0.000000000E+00 -9.791813746E+00  9.791813746E+00  0.000000000E+00  0.00000E+00  9.000E+00
      23     2     1     2     0     0 -5.660590640E+00  9.655944762E+00  4.614840586E+01  6.227568521E+01  4.029027240E+01  0.00000E+00  9.000E+00
      13     1     3     3     0     0  1.372427536E+01  1.539771149E+01  2.996852242E+01  3.638088444E+01  1.056583668E-01  0.00000E+00  9.000E+00
     -13     1     3     3     0     0 -1.938486600E+01 -5.741766724E+00  1.617988344E+01  2.589480077E+01  1.056583668E-01  0.00000E+00  9.000E+00
      -5     1     1     2     0   511  5.660590640E+00 -9.655944762E+00  1.639493603E+01  1.985128417E+01  0.000000000E+00  0.00000E+00  9.000E+00
#pdf  -5  5 0.80359864E-02 0.11952934E-02 0.40290272E+02 0.20434645E+00 0.58708663E+00
#rwgt            1           1   37.589689073976480         54217137    18368525           0
</event>
<event>
      6  10013  3.31628E+03  4.58695E+00 -1.00000E+00  2.50106E-01
      -2    -1     0     0     0   501  0.000000000E+00  0.000000000E+00  2.588956542E+00  2.588956542E+00  0.000000000E+00  0.00000E+00  9.000E+00
      21    -1     0     0   501   511  0.000000000E+00  0.000000000E+00 -1.133132183E+03  1.133132183E+03  0.000000000E+00  0.00000E+00  9.000E+00
      23     2     1     2     0     0 -1.372557574E+00  4.376776624E+00 -9.217640019E+02  9.268915327E+02  9.725223956E+01  0.00000E+00  9.000E+00
      13     1     3     3     0     0 -3.536220494E+01  1.448601566E+01 -1.678992727E+02  1.721932261E+02  1.056583668E-01  0.00000E+00  9.000E+00
     -13     1     3     3     0     0  3.398964736E+01 -1.010923903E+01 -7.538647292E+02  7.546983066E+02  1.056583668E-01  0.00000E+00  9.000E+00
      -2     1     1     2     0   511  1.372557574E+00 -4.376776624E+00 -2.087792245E+02  2.088296068E+02  0.000000000E+00  0.00000E+00  9.000E+00
#pdf  -2  2 0.39398746E-03 0.14204636E+00 0.97252240E+02 0.20986972E+01 0.56156834E+00
#rwgt            1           4   885.47504308221926         54217137    18368724           0
</event>
<event>
      6  10013  3.31628E+03  2.73887E+01 -1.00000E+00  1.55802E-01
      21    -1     0     0   501   511  0.000000000E+00  0.000000000E+00  3.280699219E+02  3.280699219E+02  0.000000000E+00  0.00000E+00  9.000E+00
      -1    -1     0     0     0   501  0.000000000E+00  0.000000000E+00 -1.336987702E+01  1.336987702E+01  0.000000000E+00  0.00000E+00  9.000E+00
      23     2     1     2     0     0 -2.510467816E+01 -1.094964666E+01  2.765249494E+02  2.944559980E+02  9.740712258E+01  0.00000E+00  9.000E+00
      13     1     3     3     0     0 -3.515465608E+01  3.174980464E+01  7.895640260E+01  9.207618918E+01  1.056583668E-01  0.00000E+00  9.000E+00
     -13     1     3     3     0     0  1.004997792E+01 -4.269945130E+01  1.975685468E+02  2.023798089E+02  1.056583668E-01  0.00000E+00  9.000E+00
      -1     1     1     2     0   511  2.510467816E+01  1.094964666E+01  3.817509548E+01  4.698380085E+01  0.000000000E+00  0.00000E+00  9.000E+00
#pdf   1 -1 0.42281981E-01 0.13278206E-02 0.97407123E+02 0.46285955E+00 0.13151856E+01
#rwgt            1           6   635.72520030724536         54217137    18368931           0
</event>
<event>
      6  10013  3.31628E+03  5.83504E+00 -1.00000E+00  2.27289E-01
       1    -1     0     0   501     0  0.000000000E+00  0.000000000E+00  8.091928611E+01  8.091928611E+01  0.000000000E+00  0.00000E+00  9.000E+00
      -1    -1     0     0     0   511  0.000000000E+00  0.000000000E+00 -2.965214924E+01  2.965214924E+01  0.000000000E+00  0.00000E+00  9.000E+00
      23     2     1     2     0     0 -5.366860245E+00  2.290083351E+00  4.960322543E+01  1.045037940E+02  9.179605280E+01  0.00000E+00  9.000E+00
      13     1     3     3     0     0  1.604708339E+01  1.744233473E+01  6.829637029E+01  7.229211080E+01  1.056583668E-01  0.00000E+00  9.000E+00
     -13     1     3     3     0     0 -2.141394364E+01 -1.515225138E+01 -1.869314486E+01  3.221168316E+01  1.056583668E-01  0.00000E+00  9.000E+00
      21     1     1     2   501   511  5.366860245E+00 -2.290083351E+00  1.663911446E+00  6.067641382E+00  1.299053116E-07  0.00000E+00  9.000E+00
#pdf   1 -1 0.11830509E-01 0.42146146E-02 0.91796053E+02 0.64254990E+00 0.80536298E+00
#rwgt            1           6   738.85021047868258         54217137    18368985           0
</event>
<event>
      6  10013  3.31628E+03  4.39205E+01 -1.00000E+00  1.42336E-01
       1    -1     0     0   501     0  0.000000000E+00  0.000000000E+00  2.369188702E+02  2.369188702E+02  0.000000000E+00  0.00000E+00  9.000E+00
      21    -1     0     0   511   501  0.000000000E+00  0.000000000E+00 -3.316808356E+01  3.316808356E+01  0.000000000E+00  0.00000E+00  9.000E+00
      23     2     1     2     0     0 -1.683692161E+01  4.056512016E+01  2.031862469E+02  2.261628191E+02  8.908399932E+01  0.00000E+00  9.000E+00
      13     1     3     3     0     0  1.554540826E+01  2.834898738E+01  1.650588291E+01  3.630124155E+01  1.056583668E-01  0.00000E+00  9.000E+00
     -13     1     3     3     0     0 -3.238232987E+01  1.221613278E+01  1.866803640E+02  1.898615776E+02  1.056583668E-01  0.00000E+00  9.000E+00
       1     1     1     2   511     0  1.683692161E+01 -4.056512016E+01  5.645398116E-01  4.392413468E+01  0.000000000E+00  0.00000E+00  9.000E+00
#pdf   1 -1 0.29622315E-01 0.15852352E-02 0.89083999E+02 0.50316478E+00 0.12086872E+01
#rwgt            1           6   645.83343000111324         54217137    18369121           0
</event>
<event>
      6  10013  3.31628E+03  1.48245E+01 -1.00000E+00  1.77819E-01
      21    -1     0     0   501   511  0.000000000E+00  0.000000000E+00  1.075808563E+01  1.075808563E+01  0.000000000E+00  0.00000E+00  9.000E+00
      -2    -1     0     0     0   501  0.000000000E+00  0.000000000E+00 -3.836753558E+02  3.836753558E+02  0.000000000E+00  0.00000E+00  9.000E+00
      23     2     1     2     0     0  2.446865004E-01  1.482243754E+01 -3.672091138E+02  3.785479897E+02  9.075396812E+01  0.00000E+00  9.000E+00
      13     1     3     3     0     0  6.023310297E+00  4.456691659E+01 -1.002557052E+02  1.098804255E+02  1.056583668E-01  0.00000E+00  9.000E+00
     -13     1     3     3     0     0 -5.778623796E+00 -2.974447905E+01 -2.669534086E+02  2.686675642E+02  1.056583668E-01  0.00000E+00  9.000E+00
      -2     1     1     2     0   511 -2.446865004E-01 -1.482243754E+01 -5.708156328E+00  1.588545167E+01  0.000000000E+00  0.00000E+00  9.000E+00
#pdf   2 -2 0.86081252E-03 0.56615581E-01 0.90753968E+02 0.16043697E+01 0.16201661E+00
#rwgt            1           7   298.68211833880883         54217137    18369148           0
</event>
<event>
      6  10013  3.31628E+03  2.11596E+01 -1.00000E+00  1.64334E-01
      21    -1     0     0   511   501  0.000000000E+00  0.000000000E+00  1.078523090E+00  1.078523090E+00  0.000000000E+00  0.00000E+00  9.000E+00
       2    -1     0     0   501     0  0.000000000E+00  0.000000000E+00 -7.058823071E+02  7.058823071E+02  0.000000000E+00  0.00000E+00  9.000E+00
      23     2     1     2     0     0  1.557998591E+01  1.431760211E+01 -3.305378133E+02  3.320971930E+02  2.419855068E+01  0.00000E+00  9.000E+00
      13     1     3     3     0     0  1.823372374E+00  1.771407348E+01 -1.670852422E+02  1.680315519E+02  1.056583668E-01  0.00000E+00  9.000E+00
     -13     1     3     3     0     0  1.375661353E+01 -3.396471371E+00 -1.634525711E+02  1.640656411E+02  1.056583668E-01  0.00000E+00  9.000E+00
       2     1     1     2   511     0 -1.557998591E+01 -1.431760211E+01 -3.742659707E+02  3.748636372E+02  0.000000000E+00  0.00000E+00  9.000E+00
#pdf  -2  2 0.90299376E-04 0.38371366E-01 0.24198551E+02 0.24279069E+01 0.62586178E+00
#rwgt            1           4   1407.8967497249796         54217137    18369232           0
</event>
<event>
      6  10013  3.31628E+03  6.44430E+00 -1.00000E+00  2.20684E-01
       2    -1     0     0   501     0  0.000000000E+00  0.000000000E+00  2.105376065E+03  2.105376065E+03  0.000000000E+00  0.00000E+00  9.000E+00
      21    -1     0     0   511   501  0.000000000E+00  0.000000000E+00 -2.347957477E-01  2.347957477E-01  0.000000000E+00  0.00000E+00  9.000E+00
      23     2     1     2     0     0  2.117933770E-01  6.440815044E+00  2.043629081E+03  2.043762027E+03  2.240251324E+01  0.00000E+00  9.000E+00
      13     1     3     3     0     0 -5.095352142E+00  1.226201727E+01  1.654036600E+03  1.654089903E+03  1.056583668E-01  0.00000E+00  9.000E+00
     -13     1     3     3     0     0  5.307145519E+00 -5.821202229E+00  3.895924810E+02  3.896721245E+02  1.056583668E-01  0.00000E+00  9.000E+00
       2     1     1     2   511     0 -2.117933770E-01 -6.440815044E+00  6.151218824E+01  6.184883392E+01  0.000000000E+00  0.00000E+00  9.000E+00
#pdf   2 -2 0.30216151E+00 0.98280562E-05 0.22402513E+02 0.40155993E+00 0.45491396E+01
#rwgt            1           7   9164.1640707682163         54217137    18369261           0
</event>
<event>
      6  10013  3.31628E+03  6.42874E+00 -1.00000E+00  2.20840E-01
      21    -1     0     0   511   501  0.000000000E+00  0.000000000E+00  2.127328381E+00  2.127328381E+00  0.000000000E+00  0.00000E+00  9.000E+00
       2    -1     0     0   501     0  0.000000000E+00  0.000000000E+00 -1.149682044E+03  1.149682044E+03  0.000000000E+00  0.00000E+00  9.000E+00
      23     2     1     2     0     0 -3.827851111E+00 -5.164903182E+00 -1.116502797E+03  1.120098959E+03  8.945308006E+01  0.00000E+00  9.000E+00
      13     1     3     3     0     0  4.156068510E+01 -1.023644205E+01 -6.322706900E+02  6.337178488E+02  1.056583668E-01  0.00000E+00  9.000E+00
     -13     1     3     3     0     0 -4.538853621E+01  5.071538870E+00 -4.842321066E+02  4.863811098E+02  1.056583668E-01  0.00000E+00  9.000E+00
       2     1     1     2   511     0  3.827851111E+00  5.164903182E+00 -3.105191935E+01  3.171041413E+01  0.000000000E+00  0.00000E+00  9.000E+00
#pdf  -2  2 0.27591622E-03 0.17160370E+00 0.89453080E+02 0.23563791E+01 0.52895120E+00
#rwgt            1           4   1503.3308968420627         54217137    18369323           0
</event>
<event>
      6  10013  3.31628E+03  1.85242E+01 -1.00000E+00  1.69120E-01
      21    -1     0     0   501   511  0.000000000E+00  0.000000000E+00  9.451962299E+00  9.451962299E+00  0.000000000E+00  0.00000E+00  9.000E+00
      -2    -1     0     0     0   501  0.000000000E+00  0.000000000E+00 -9.504671099E+01  9.504671099E+01  0.000000000E+00  0.00000E+00  9.000E+00
      23     2     1     2     0     0  1.747091376E+01 -6.157263394E+00 -7.871538437E+01  8.473835008E+01  2.532452403E+01  0.00000E+00  9.000E+00
      13     1     3     3     0     0  2.405916766E+00 -8.442156951E-01 -6.032333800E+01  6.037729215E+01  1.056583668E-01  0.00000E+00  9.000E+00
     -13     1     3     3     0     0  1.506499699E+01 -5.313047699E+00 -1.839204637E+01  2.436105793E+01  1.056583668E-01  0.00000E+00  9.000E+00
      -2     1     1     2     0   511 -1.747091376E+01  6.157263394E+00 -6.879364321E+00  1.976032321E+01  0.000000000E+00  0.00000E+00  9.000E+00
#pdf   2 -2 0.37394326E-03 0.10148227E-01 0.25324524E+02 0.16074611E+01 0.46137322E+00
#rwgt            1           7   746.18497514151647         54217137    18369537           0
</event>
<event>
      6  10013  3.31628E+03  2.35202E+00 -1.00000E+00  3.32940E-01
       3    -1     0     0   501     0  0.000000000E+00  0.000000000E+00  2.955560185E+02  2.955560185E+02  0.000000000E+00  0.00000E+00  9.000E+00
      -3    -1     0     0     0   511  0.000000000E+00  0.000000000E+00 -2.497321251E+01  2.497321251E+01  0.000000000E+00  0.00000E+00  9.000E+00
      23     2     1     2     0     0  2.304543501E+00  4.701922299E-01  2.882627757E+02  3.026934991E+02  9.231681609E+01  0.00000E+00  9.000E+00
      13     1     3     3     0     0 -3.651764987E+01 -2.072391433E+01  8.666813952E+01  9.630367048E+01  1.056583668E-01  0.00000E+00  9.000E+00
     -13     1     3     3     0     0  3.882219337E+01  2.119410656E+01  2.015946362E+02  2.063898286E+02  1.056583668E-01  0.00000E+00  9.000E+00
      21     1     1     2   501   511 -2.304543501E+00 -4.701922299E-01 -1.767996975E+01  1.783573188E+01  9.536743164E-07  0.00000E+00  9.000E+00
#pdf   3 -3 0.45443428E-01 0.11096955E-02 0.92316816E+02 0.16523007E+00 0.13533748E+01
#rwgt            1           8   261.98895327469273         54217137    18369696           0
</event>
<event>
      6  10013  3.31628E+03  1.09324E+01 -1.00000E+00  1.91330E-01
       2    -1     0     0   501     0  0.000000000E+00  0.000000000E+00  6.170660478E+02  6.170660478E+02  0.000000000E+00  0.00000E+00  9.000E+00
      -2    -1     0     0     0   511  0.000000000E+00  0.000000000E+00 -4.600996545E+00  4.600996545E+00  0.000000000E+00  0.00000E+00  9.000E+00
      23     2     1     2     0     0 -8.110408793E+00 -7.330674225E+00  5.548058994E+02  5.629806293E+02  9.496360077E+01  0.00000E+00  9.000E+00
      13     1     3     3     0     0 -3.259530361E+01  1.566567301E+01  9.045818685E+01  9.741951479E+01  1.056583668E-01  0.00000E+00  9.000E+00
     -13     1     3     3     0     0  2.448489482E+01 -2.299634724E+01  4.643477125E+02  4.655611145E+02  1.056583668E-01  0.00000E+00  9.000E+00
      21     1     1     2   501   511  8.110408793E+00  7.330674225E+00  5.765915191E+01  5.868641507E+01  0.000000000E+00  0.00000E+00  9.000E+00
#pdf   2 -2 0.85419407E-01 0.62469941E-03 0.94963601E+02 0.61216022E+00 0.17530435E+01
#rwgt            1           7   833.12058310467501         54217137    18369898           0
</event>
<event>
      6  10013  3.31628E+03  5.99618E+01 -1.00000E+00  1.34691E-01
      21    -1     0     0   511   501  0.000000000E+00  0.000000000E+00  2.223316745E+02  2.223316745E+02  0.000000000E+00  0.00000E+00  9.000E+00
       2    -1     0     0   501     0  0.000000000E+00  0.000000000E+00 -3.251926833E+01  3.251926833E+01  0.000000000E+00  0.00000E+00  9.000E+00
      23     2     1     2     0     0  2.650340705E+01 -5.378649101E+01  1.329876351E+02  1.722405815E+02  9.157341100E+01  0.00000E+00  9.000E+00
      13     1     3     3     0     0  1.594020221E+01 -1.064000699E+01  1.257884874E+02  1.272401451E+02  1.056583668E-01  0.00000E+00  9.000E+00
     -13     1     3     3     0     0  1.056320483E+01 -4.314648402E+01  7.199147701E+00  4.500043634E+01  1.056583668E-01  0.00000E+00  9.000E+00
       2     1     1     2   511     0 -2.650340705E+01  5.378649101E+01  5.682477103E+01  8.261036136E+01  0.000000000E+00  0.00000E+00  9.000E+00
#pdf  -2  2 0.19642748E-01 0.25260959E-02 0.91573411E+02 0.35758185E+00 0.11134838E+01
#rwgt            1           4   353.15203937714779         54217137    18369963           0
</event>
<event>
      6  10013  3.31628E+03  8.49382E+01 -1.00000E+00  1.27079E-01
       4    -1     0     0   501     0  0.000000000E+00  0.000000000E+00  4.127270908E+01  4.127270908E+01  0.000000000E+00  0.00000E+00  9.000E+00
      21    -1     0     0   511   501  0.000000000E+00  0.000000000E+00 -3.033138604E+02  3.033138604E+02  0.000000000E+00  0.00000E+00  9.000E+00
      23     2     1     2     0     0  8.269096919E+01 -1.940865244E+01 -9.018413011E+01  1.528854273E+02  8.958953276E+01  0.00000E+00  9.000E+00
      13     1     3     3     0     0  6.170143076E+01  2.993236084E+01 -6.129188216E+01  9.197672947E+01  1.056583668E-01  0.00000E+00  9.000E+00
     -13     1     3     3     0     0  2.098953844E+01 -4.934101327E+01 -2.889224795E+01  6.090869782E+01  1.056583668E-01  0.00000E+00  9.000E+00
       4     1     1     2   511     0 -8.269096919E+01  1.940865244E+01 -1.718570212E+02  1.917011422E+02  0.000000000E+00  0.00000E+00  9.000E+00
#pdf   4 -4 0.35001519E-02 0.13568784E-01 0.89589533E+02 0.64554068E+00 0.28228761E+00
#rwgt            1           9   164.32909743561052         54217137    18370005           0
</event>
<event>
      6  10013  3.31628E+03  2.29063E+01 -1.00000E+00  1.61610E-01
      -2    -1     0     0     0   501  0.000000000E+00  0.000000000E+00  1.147914121E+00  1.147914121E+00  0.000000000E+00  0.00000E+00  9.000E+00
       2    -1     0     0   511     0  0.000000000E+00  0.000000000E+00 -2.985617221E+03  2.985617221E+03  0.000000000E+00  0.00000E+00  9.000E+00
      23     2     1     2     0     0  1.854345259E+01 -1.344755319E+01 -2.314427132E+03  2.316331535E+03  9.107213326E+01  0.00000E+00  9.000E+00
      13     1     3     3     0     0  9.364970548E+00 -4.778373879E+01 -1.809505309E+03  1.810160342E+03  1.056583668E-01  0.00000E+00  9.000E+00
     -13     1     3     3     0     0  9.178482042E+00  3.433618559E+01 -5.049218229E+02  5.061711930E+02  1.056583668E-01  0.00000E+00  9.000E+00
      21     1     1     2   511   501 -1.854345259E+01  1.344755319E+01 -6.700421745E+02  6.704335999E+02  7.629394531E-06  0.00000E+00  9.000E+00
#pdf  -2  2 0.14206775E-03 0.34545289E+00 0.91072133E+02 0.30078096E+01 0.27875625E+00
#rwgt            1           4   2050.2286396712352         54217137    18370032           0
</event>
<event>
      6  10013  3.31628E+03  2.33119E+01 -1.00000E+00  1.61020E-01
       2    -1     0     0   501     0  0.000000000E+00  0.000000000E+00  3.063297583E+03  3.063297583E+03  0.000000000E+00  0.00000E+00  9.000E+00
      21    -1     0     0   511   501  0.000000000E+00  0.000000000E+00 -1.016556712E+01  1.016556712E+01  0.000000000E+00  0.00000E+00  9.000E+00
      23     2     1     2     0     0  1.308180065E+01 -1.929534764E+01  3.047939253E+03  3.049579919E+03  9.726534731E+01  0.00000E+00  9.000E+00
      13     1     3     3     0     0  2.399383352E+01 -2.396405917E+01  3.000051089E+03  3.000242745E+03  1.056583668E-01  0.00000E+00  9.000E+00
     -13     1     3     3     0     0 -1.091203287E+01  4.668711530E+00  4.788816396E+01  4.933717402E+01  1.056583668E-01  0.00000E+00  9.000E+00
       2     1     1     2   511     0 -1.308180065E+01  1.929534764E+01  5.192762904E+00  2.388323126E+01  0.000000000E+00  0.00000E+00  9.000E+00
#pdf   2 -2 0.45612230E+00 0.12272931E-03 0.97265347E+02 0.14489561E+00 0.32166049E+01
#rwgt            1           7   5823.7513802222657         54217137    18370103           0
</event>
<event>
      6  10013  3.31628E+03  2.31088E+01 -1.00000E+00  1.61314E-01
      21    -1     0     0   501   511  0.000000000E+00  0.000000000E+00  8.514731404E+01  8.514731404E+01  0.000000000E+00  0.00000E+00  9.000E+00
      -2    -1     0     0     0   501  0.000000000E+00  0.000000000E+00 -5.720623980E+01  5.720623980E+01  0.000000000E+00  0.00000E+00  9.000E+00
      23     2     1     2     0     0  1.203664903E+01 -1.972655672E+01 -1.512830125E+01  9.347626806E+01  8.930245928E+01  0.00000E+00  9.000E+00
      13     1     3     3     0     0  4.709960471E+01 -2.929982823E+01 -4.725826236E+00  5.567043467E+01  1.056583668E-01  0.00000E+00  9.000E+00
     -13     1     3     3     0     0 -3.506295568E+01  9.573271513E+00 -1.040247501E+01  3.780583340E+01  1.056583668E-01  0.00000E+00  9.000E+00
      -2     1     1     2     0   511 -1.203664903E+01  1.972655672E+01  4.306937549E+01  4.887728578E+01  0.000000000E+00  0.00000E+00  9.000E+00
#pdf   2 -2 0.58345838E-02 0.80877971E-02 0.89302459E+02 0.86596388E+00 0.58039784E+00
#rwgt            1           7   457.77855433692179         54217137    18370148           0
</event>
<event>
      6  10013  3.31628E+03  5.47626E+00 -1.00000E+00  2.31731E-01
      -2    -1     0     0     0   511  0.000000000E+00  0.000000000E+00  8.032505140E-01  8.032505140E-01  0.000000000E+00  0.00000E+00  9.000E+00
       2    -1     0     0   501     0  0.000000000E+00  0.000000000E+00 -8.673437562E+02  8.673437562E+02  0.000000000E+00  0.00000E+00  9.000E+00
      23     2     1     2     0     0 -4.651745534E+00 -2.889747144E+00 -8.192974382E+02  8.205876039E+02  4.566983665E+01  0.00000E+00  9.000E+00
      13     1     3     3     0     0  1.084103279E+01 -1.669041498E+01 -2.110399024E+02  2.119762947E+02  1.056583668E-01  0.00000E+00  9.000E+00
     -13     1     3     3     0     0 -1.549277832E+01  1.380066783E+01 -6.082575358E+02  6.086113091E+02  1.056583668E-01  0.00000E+00  9.000E+00
      21     1     1     2   501   511  4.651745534E+00  2.889747144E+00 -4.724306750E+01  4.755940288E+01  9.536743164E-07  0.00000E+00  9.000E+00
#pdf  -2  2 0.98537637E-04 0.12524779E+00 0.45669837E+02 0.28673516E+01 0.59629230E+00
#rwgt            1           4   2025.3050844812788         54217137    18370188           0
</event>
<event>
      6  10013  3.31628E+03  1.46823E+00 -1.00000E+00  4.51752E-01
      21    -1     0     0   501   511  0.000000000E+00  0.000000000E+00  9.648805816E+00  9.648805816E+00  0.000000000E+00  0.00000E+00  9.000E+00
      -1    -1     0     0     0   501  0.000000000E+00  0.000000000E+00 -1.012419179E+03  1.012419179E+03  0.000000000E+00  0.00000E+00  9.000E+00
      23     2     1     2     0     0 -1.460239004E+00  1.529273263E-01 -1.010398855E+03  1.014299496E+03  8.885643458E+01  0.00000E+00  9.000E+00
      13     1     3     3     0     0 -7.517015715E+00 -1.636317953E+01 -9.708212842E+02  9.709882781E+02  1.056583668E-01  0.00000E+00  9.000E+00
     -13     1     3     3     0     0  6.056776710E+00  1.651610686E+01 -3.957757032E+01  4.331121755E+01  1.056583668E-01  0.00000E+00  9.000E+00
      -1     1     1     2     0   511  1.460239004E+00 -1.529273263E-01  7.628481719E+00  7.768488788E+00  0.000000000E+00  0.00000E+00  9.000E+00
#pdf   1 -1 0.30000836E-03 0.15572477E+00 0.88856435E+02 0.23101544E+01 0.60778205E-01
#rwgt            1           6   348.88132458172720         54217137    18370310           0
</event>
<event>
      6  10013  3.31628E+03  4.44814E+00 -1.00000E+00  2.52957E-01
      21    -1     0     0   501   511  0.000000000E+00  0.000000000E+00  7.558374012E+02  7.558374012E+02  0.000000000E+00  0.00000E+00  9.000E+00
      -2    -1     0     0     0   501  0.000000000E+00  0.000000000E+00 -4.019741847E+00  4.019741847E+00  0.000000000E+00  0.00000E+00  9.000E+00
      23     2     1     2     0     0 -3.950202271E+00  2.044954994E+00  5.169795068E+02  5.249768675E+02  9.117628549E+01  0.00000E+00  9.000E+00
      13     1     3     3     0     0  4.793211088E+00  4.112070740E+01  3.804717112E+02  3.827174175E+02  1.056583668E-01  0.00000E+00  9.000E+00
     -13     1     3     3     0     0 -8.743413359E+00 -3.907575240E+01  1.365077956E+02  1.422594500E+02  1.056583668E-01  0.00000E+00  9.000E+00
      -2     1     1     2     0   511  3.950202271E+00 -2.044954994E+00  2.348381526E+02  2.348802756E+02  0.000000000E+00  0.00000E+00  9.000E+00
#pdf   2 -2 0.80055278E-01 0.61445080E-03 0.91176285E+02 0.61600360E+00 0.17514902E+01
#rwgt            1           7   1356.4781099407505         54217137    18370541           0
</event>
<event>
      6  10013  3.31628E+03  6.57669E+00 -1.00000E+00  2.19381E-01
      -2    -1     0     0     0   501  0.000000000E+00  0.000000000E+00  1.045196449E+01  1.045196449E+01  0.000000000E+00  0.00000E+00  9.000E+00
       2    -1     0     0   511     0  0.000000000E+00  0.000000000E+00 -1.959292710E+02  1.959292710E+02  0.000000000E+00  0.00000E+00  9.000E+00
      23     2     1     2     0     0  1.804030485E-01 -6.574211426E+00 -1.414820822E+02  1.618971646E+02  7.842359032E+01  0.00000E+00  9.000E+00
      13     1     3     3     0     0 -1.560281097E+01  2.834615237E+01 -3.042567656E+01  4.441491892E+01  1.056583668E-01  0.00000E+00  9.000E+00
     -13     1     3     3     0     0  1.578321402E+01 -3.492036380E+01 -1.110564057E+02  1.174822457E+02  1.056583668E-01  0.00000E+00  9.000E+00
      21     1     1     2   511   501 -1.804030485E-01  6.574211426E+00 -4.399522428E+01  4.448407086E+01  0.000000000E+00  0.00000E+00  9.000E+00
#pdf  -2  2 0.15648979E-02 0.23255235E-01 0.78423590E+02 0.11830260E+01 0.66486793E+00
#rwgt            1           4   1243.9370641477001         54217137    18370687           0
</event>
<event>
      6  10013  3.31628E+03  4.64210E+00 -1.00000E+00  2.49015E-01
      -2    -1     0     0     0   501  0.000000000E+00  0.000000000E+00  1.683205798E+00  1.683205798E+00  0.000000000E+00  0.00000E+00  9.000E+00
       2    -1     0     0   511     0  0.000000000E+00  0.000000000E+00 -1.532433702E+03  1.532433702E+03  0.000000000E+00  0.00000E+00  9.000E+00
      23     2     1     2     0     0 -4.409752605E+00 -1.450245157E+00 -1.272054663E+03  1.275379429E+03  9.191339185E+01  0.00000E+00  9.000E+00
      13     1     3     3     0     0  2.736182933E+01 -2.063235157E+01 -1.023084116E+03  1.023657894E+03  1.056583668E-01  0.00000E+00  9.000E+00
     -13     1     3     3     0     0 -3.177158194E+01  1.918210642E+01 -2.489705470E+02  2.517215348E+02  1.056583668E-01  0.00000E+00  9.000E+00
      21     1     1     2   511   501  4.409752605E+00  1.450245157E+00 -2.586958331E+02  2.587374793E+02  5.394796609E-06  0.00000E+00  9.000E+00
#pdf  -2  2 0.25542563E-03 0.19570703E+00 0.91913392E+02 0.24377422E+01 0.49633429E+00
#rwgt            1           4   1777.3786960341129         54217137    18370857           0
</event>
<event>
      6  10013  3.31628E+03  1.55778E+00 -1.00000E+00  4.22395E-01
      21    -1     0     0   511   501  0.000000000E+00  0.000000000E+00  3.380070278E+02  3.380070278E+02  0.000000000E+00  0.00000E+00  9.000E+00
       2    -1     0     0   501     0  0.000000000E+00  0.000000000E+00 -6.333555897E-01  6.333555897E-01  0.000000000E+00  0.00000E+00  9.000E+00
      23     2     1     2     0     0 -1.179157084E+00 -1.017972927E+00  2.439677576E+02  2.452214797E+02  2.471600055E+01  0.00000E+00  9.000E+00
      13     1     3     3     0     0 -3.243710815E+00 -1.030784214E+01  5.723073142E+01  5.824209004E+01  1.056583668E-01  0.00000E+00  9.000E+00
     -13     1     3     3     0     0  2.064553732E+00  9.289869216E+00  1.867370261E+02  1.869793896E+02  1.056583668E-01  0.00000E+00  9.000E+00
       2     1     1     2   511     0  1.179157084E+00  1.017972927E+00  9.340591469E+01  9.341890376E+01  0.000000000E+00  0.00000E+00  9.000E+00
#pdf  -2  2 0.37555422E-01 0.96249180E-04 0.24716001E+02 0.22440990E+00 0.24142874E+01
#rwgt            1           4   533.17435810584345         54217137    18371073           0
</event>
<event>
      6  10013  3.31628E+03  2.83154E+00 -1.00000E+00  3.04551E-01
      -2    -1     0     0     0   501  0.000000000E+00  0.000000000E+00  3.319041920E-01  3.319041920E-01  0.000000000E+00  0.00000E+00  9.000E+00
       2    -1     0     0   511     0  0.000000000E+00  0.000000000E+00 -4.693566238E+02  4.693566238E+02  0.000000000E+00  0.00000E+00  9.000E+00
      23     2     1     2     0     0 -2.774813358E+00 -5.639205311E-01 -3.720673005E+02  3.726897718E+02  2.134413873E+01  0.00000E+00  9.000E+00
      13     1     3     3     0     0 -1.037835921E+01  5.393666645E+00 -1.799309458E+02  1.803107274E+02  1.056583668E-01  0.00000E+00  9.000E+00
     -13     1     3     3     0     0  7.603545849E+00 -5.957587176E+00 -1.921363547E+02  1.923790444E+02  1.056583668E-01  0.00000E+00  9.000E+00
      21     1     1     2   511   501  2.774813358E+00  5.639205311E-01 -9.695741911E+01  9.699875626E+01  0.000000000E+00  0.00000E+00  9.000E+00
#pdf  -2  2 0.47466544E-04 0.56791450E-01 0.21344139E+02 0.28215236E+01 0.62706755E+00
#rwgt            1           4   2380.1639655001691         54217137    18371294           0
</event>
<event>
      6  10013  3.31628E+03  1.60037E+01 -1.00000E+00  1.74728E-01
       3    -1     0     0   501     0  0.000000000E+00  0.000000000E+00  1.982962359E+00  1.982962359E+00  0.000000000E+00  0.00000E+00  9.000E+00
      -3    -1     0     0     0   511  0.000000000E+00  0.000000000E+00 -4.253833596E+02  4.253833596E+02  0.000000000E+00  0.00000E+00  9.000E+00
      23     2     1     2     0     0 -1.302736192E+01  9.295575467E+00 -2.962638362E+02  2.992264569E+02  3.883415953E+01  0.00000E+00  9.000E+00
      13     1     3     3     0     0  1.453417202E+00 -8.769687749E+00 -2.007408957E+02  2.009376475E+02  1.056583668E-01  0.00000E+00  9.000E+00
     -13     1     3     3     0     0 -1.448077912E+01  1.806526322E+01 -9.552294057E+01  9.828880932E+01  1.056583668E-01  0.00000E+00  9.000E+00
      21     1     1     2   501   511  1.302736192E+01 -9.295575467E+00 -1.271365610E+02  1.281398651E+02  0.000000000E+00  0.00000E+00  9.000E+00
#pdf   3 -3 0.21070325E-03 0.42351606E-01 0.38834160E+02 0.20730512E+01 0.17439359E+00
#rwgt            1           8   83.225577172319575         54217137    18371398           0
</event>
<event>
      6  10013  3.31628E+03  2.66052E+01 -1.00000E+00  1.56716E-01
       1    -1     0     0   501     0  0.000000000E+00  0.000000000E+00  3.716021906E+01  3.716021906E+01  0.000000000E+00  0.00000E+00  9.000E+00
      21    -1     0     0   511   501  0.000000000E+00  0.000000000E+00 -2.473173011E+02  2.473173011E+02  0.000000000E+00  0.00000E+00  9.000E+00
      23     2     1     2     0     0 -1.240014425E+01  2.353880250E+01  2.648350058E+01  4.634603516E+01  2.717977871E+01  0.00000E+00  9.000E+00
      13     1     3     3     0     0 -1.290206285E+01  2.527139017E+01  1.049121426E+01  3.025199377E+01  1.056583668E-01  0.00000E+00  9.000E+00
     -13     1     3     3     0     0  5.019185997E-01 -1.732587671E+00  1.599228633E+01  1.609404138E+01  1.056583668E-01  0.00000E+00  9.000E+00
       1     1     1     2   511     0  1.240014425E+01 -2.353880250E+01 -2.366405827E+02  2.381314850E+02  0.000000000E+00  0.00000E+00  9.000E+00
#pdf   1 -1 0.40034923E-02 0.10918579E-02 0.27179779E+02 0.78337090E+00 0.11203329E+01
#rwgt            1           6   280.65466554452792         54217137    18371438           0
</event>
<event>
      6  10013  3.31628E+03  2.48395E+01 -1.00000E+00  1.58923E-01
       4    -1     0     0   501     0  0.000000000E+00  0.000000000E+00  3.175652328E+02  3.175652328E+02  0.000000000E+00  0.00000E+00  9.000E+00
      21    -1     0     0   511   501  0.000000000E+00  0.000000000E+00 -1.843679738E+01  1.843679738E+01  0.000000000E+00  0.00000E+00  9.000E+00
      23     2     1     2     0     0  2.356127869E+01 -7.865641447E+00  2.956464107E+02  3.109196326E+02  9.299040629E+01  0.00000E+00  9.000E+00
      13     1     3     3     0     0  3.483902524E+01  2.973262274E+01  8.411018672E+01  9.577223610E+01  1.056583668E-01  0.00000E+00  9.000E+00
     -13     1     3     3     0     0 -1.127774655E+01 -3.759826419E+01  2.115362239E+02  2.151473965E+02  1.056583668E-01  0.00000E+00  9.000E+00
       4     1     1     2   511     0 -2.356127869E+01  7.865641447E+00  3.482024754E+00  2.508239752E+01  0.000000000E+00  0.00000E+00  9.000E+00
#pdf   4 -4 0.45078402E-01 0.11350659E-02 0.92990406E+02 0.95722672E-01 0.11178177E+01
#rwgt            1           9   77.722304246953655         54217137    18371469           0
</event>
<event>
      6  10013 -3.31628E+03  1.35803E+01 -1.00000E+00  1.81501E-01
       5    -1     0     0   501     0  0.000000000E+00  0.000000000E+00  6.908983529E+02  6.908983529E+02  0.000000000E+00  0.00000E+00  9.000E+00
      21    -1     0     0   511   501  0.000000000E+00  0.000000000E+00 -6.325975667E-01  6.325975667E-01  0.000000000E+00  0.00000E+00  9.000E+00
      23     2     1     2     0     0  1.031490382E+01 -8.833373381E+00  4.025340592E+02  4.034789505E+02  2.402434085E+01  0.00000E+00  9.000E+00
      13     1     3     3     0     0  5.442150469E+00  6.914070801E+00  7.226872254E+01  7.280247797E+01  1.056583668E-01  0.00000E+00  9.000E+00
     -13     1     3     3     0     0  4.872753350E+00 -1.574744418E+01  3.302653367E+02  3.306764726E+02  1.056583668E-01  0.00000E+00  9.000E+00
       5     1     1     2   511     0 -1.031490382E+01  8.833373381E+00  2.877316961E+02  2.880520000E+02  0.000000000E+00  0.00000E+00  9.000E+00
#pdf   5 -5 0.53974451E-01 0.63274399E-04 0.24024341E+02 0.31145551E-01 0.14668722E+01
#rwgt            1          10  -85.947586878181411         54217137    18371535           0
</event>
<event>
      6  10013  3.31628E+03  3.50060E+00 -1.00000E+00  2.77787E-01
       2    -1     0     0   501     0  0.000000000E+00  0.000000000E+00  3.336614153E+00  3.336614153E+00  0.000000000E+00  0.00000E+00  9.000E+00
      21    -1     0     0   511   501  0.000000000E+00  0.000000000E+00 -2.892290181E+02  2.892290181E+02  0.000000000E+00  0.00000E+00  9.000E+00
      23     2     1     2     0     0 -3.330747948E+00  1.077169505E+00 -9.210778417E+01  9.874939703E+01  3.543085283E+01  0.00000E+00  9.000E+00
      13     1     3     3     0     0 -2.858818733E+00 -1.896792575E+00 -9.470759792E+01  9.476977859E+01  1.056583668E-01  0.00000E+00  9.000E+00
     -13     1     3     3     0     0 -4.719292144E-01  2.973962080E+00  2.599813752E+00  3.979618433E+00  1.056583668E-01  0.00000E+00  9.000E+00
       2     1     1     2   511     0  3.330747948E+00 -1.077169505E+00 -1.937846198E+02  1.938162353E+02  0.000000000E+00  0.00000E+00  9.000E+00
#pdf   2 -2 0.50841784E-03 0.14610185E-01 0.35430853E+02 0.15898709E+01 0.39943639E+00
#rwgt            1           7   957.57255412199345         54217137    18371636           0
</event>
<event>
      6  10013  3.31628E+03  4.81267E+00 -1.00000E+00  2.45782E-01
      21    -1     0     0   501   511  0.000000000E+00  0.000000000E+00  1.123342906E+01  1.123342906E+01  0.000000000E+00  0.00000E+00  9.000E+00
      -1    -1     0     0     0   501  0.000000000E+00  0.000000000E+00 -2.071452446E+02  2.071452446E+02  0.000000000E+00  0.00000E+00  9.000E+00
      23     2     1     2     0     0  1.545999307E+00 -4.557599920E+00 -1.945084576E+02  2.133655664E+02  8.756804796E+01  0.00000E+00  9.000E+00
      13     1     3     3     0     0 -4.239210109E+01  5.143457310E+00 -9.512225609E+01  1.042679249E+02  1.056583668E-01  0.00000E+00  9.000E+00
     -13     1     3     3     0     0  4.393810040E+01 -9.701057229E+00 -9.938620152E+01  1.090976416E+02  1.056583668E-01  0.00000E+00  9.000E+00
      -1     1     1     2     0   511 -1.545999307E+00  4.557599920E+00 -1.403357970E+00  5.013107268E+00  0.000000000E+00  0.00000E+00  9.000E+00
#pdf   1 -1 0.14483611E-02 0.31327648E-01 0.87568048E+02 0.13039954E+01 0.29199356E+00
#rwgt            1           6   504.66913547639825         54217137    18371742           0
</event>
<event>
      6  10013  3.31628E+03  1.29900E+01 -1.00000E+00  1.83429E-01
      21    -1     0     0   511   501  0.000000000E+00  0.000000000E+00  1.163042468E+02  1.163042468E+02  0.000000000E+00  0.00000E+00  9.000E+00
       3    -1     0     0   501     0  0.000000000E+00  0.000000000E+00 -5.970312830E+01  5.970312830E+01  0.000000000E+00  0.00000E+00  9.000E+00
      23     2     1     2     0     0  1.190973676E+01 -5.186255567E+00 -2.439685994E+01  9.397438424E+01  8.981781027E+01  0.00000E+00  9.000E+00
      13     1     3     3     0     0  1.639567050E+01  1.666375333E+01 -5.286789865E+01  5.780592147E+01  1.056583668E-01  0.00000E+00  9.000E+00
     -13     1     3     3     0     0 -4.485933733E+00 -2.185000890E+01  2.847103871E+01  3.616846277E+01  1.056583668E-01  0.00000E+00  9.000E+00
       3     1     1     2   511     0 -1.190973676E+01  5.186255567E+00  8.099797841E+01  8.203299082E+01  0.000000000E+00  0.00000E+00  9.000E+00
#pdf  -3  3 0.52970063E-02 0.90117209E-02 0.89817810E+02 0.67844954E+00 0.51701828E+00
#rwgt            1           3   473.22787389411826         54217137    18371840           0
</event>
<event>
      6  10013  3.31628E+03  4.16726E+00 -1.00000E+00  2.59243E-01
       2    -1     0     0   501     0  0.000000000E+00  0.000000000E+00  4.070324151E+02  4.070324151E+02  0.000000000E+00  0.00000E+00  9.000E+00
      21    -1     0     0   511   501  0.000000000E+00  0.000000000E+00 -1.840772380E+00  1.840772380E+00  0.000000000E+00  0.00000E+00  9.000E+00
      23     2     1     2     0     0 -3.108646808E+00  2.775313672E+00  4.038097462E+02  4.044827787E+02  2.294866234E+01  0.00000E+00  9.000E+00
      13     1     3     3     0     0 -3.277569113E-01 -4.033143883E-01  3.908794618E+02  3.908798216E+02  1.056583668E-01  0.00000E+00  9.000E+00
     -13     1     3     3     0     0 -2.780889897E+00  3.178628061E+00  1.293028442E+01  1.360295717E+01  1.056583668E-01  0.00000E+00  9.000E+00
       2     1     1     2   511     0  3.108646808E+00 -2.775313672E+00  1.381896496E+00  4.390408738E+00  0.000000000E+00  0.00000E+00  9.000E+00
#pdf   2 -2 0.61175888E-01 0.50938689E-04 0.22948662E+02 0.62798208E+00 0.28365586E+01
#rwgt            1           7   2908.7605478815744         54217137    18371891           0
</event>
<event>
      6  10013  3.31628E+03  2.81956E+00 -1.00000E+00  3.05142E-01
      -1    -1     0     0     0   501  0.000000000E+00  0.000000000E+00  3.277385451E+02  3.277385451E+02  0.000000000E+00  0.00000E+00  9.000E+00
       1    -1     0     0   511     0  0.000000000E+00  0.000000000E+00 -6.056114887E+00  6.056114887E+00  0.000000000E+00  0.00000E+00  9.000E+00
      23     2     1     2     0     0 -2.475993342E+00  1.348833807E+00  3.256869309E+02  3.288971175E+02  4.575354682E+01  0.00000E+00  9.000E+00
      13     1     3     3     0     0 -1.715812908E+01  2.597135235E+00  2.865988655E+02  2.871237841E+02  1.056583668E-01  0.00000E+00  9.000E+00
     -13     1     3     3     0     0  1.468213574E+01 -1.248301428E+00  3.908806540E+01  4.177333344E+01  1.056583668E-01  0.00000E+00  9.000E+00
      21     1     1     2   511   501  2.475993342E+00 -1.348833807E+00 -4.004500742E+00  4.897542430E+00  3.475518164E-07  0.00000E+00  9.000E+00
#pdf  -1  1 0.50257280E-01 0.24646987E-03 0.45753547E+02 0.21422643E+00 0.21314554E+01
#rwgt            1           5   127.65152028161427         54217137    18371995           0
</event>
<event>
      6  10013  3.31628E+03  7.97147E+01 -1.00000E+00  1.28400E-01
       4    -1     0     0   511     0  0.000000000E+00  0.000000000E+00  5.112000300E+01  5.112000300E+01  0.000000000E+00  0.00000E+00  9.000E+00
      -4    -1     0     0     0   501  0.000000000E+00  0.000000000E+00 -2.123992601E+02  2.123992601E+02  0.000000000E+00  0.00000E+00  9.000E+00
      23     2     1     2     0     0  9.879371733E+00 -7.910016563E+01 -1.294723899E+02  1.776931890E+02  9.196375096E+01  0.00000E+00  9.000E+00
      13     1     3     3     0     0  5.102731115E+01 -3.968520587E+01 -6.557912407E+01  9.208330319E+01  1.056583668E-01  0.00000E+00  9.000E+00
     -13     1     3     3     0     0 -4.114793942E+01 -3.941495975E+01 -6.389326583E+01  8.560988583E+01  1.056583668E-01  0.00000E+00  9.000E+00
      21     1     1     2   511   501 -9.879371733E+00  7.910016563E+01 -3.180686718E+01  8.582607405E+01  3.371747881E-07  0.00000E+00  9.000E+00
#pdf   4 -4 0.28028784E-02 0.17854282E-01 0.91963751E+02 0.72682067E+00 0.22988342E+00
#rwgt            1           9   215.81406905389102         54217137    18372092           0
</event>
<event>
      6  10013  3.31628E+03  3.54303E+00 -1.00000E+00  2.76416E-01
      21    -1     0     0   511   501  0.000000000E+00  0.000000000E+00  3.680615092E+00  3.680615092E+00  0.000000000E+00  0.00000E+00  9.000E+00
       1    -1     0     0   501     0  0.000000000E+00  0.000000000E+00 -2.074833210E+03  2.074833210E+03  0.000000000E+00  0.00000E+00  9.000E+00
      23     2     1     2     0     0  1.857865799E+00  3.016847045E+00 -2.072764134E+03  2.074621513E+03  8.769673311E+01  0.00000E+00  9.000E+00
      13     1     3     3     0     0 -3.039644214E+01  2.011590932E+01 -1.612480575E+03  1.612892498E+03  1.056583668E-01  0.00000E+00  9.000E+00
     -13     1     3     3     0     0  3.225430794E+01 -1.709906228E+01 -4.602835585E+02  4.617290154E+02  1.056583668E-01  0.00000E+00  9.000E+00
       1     1     1     2   511     0 -1.857865799E+00 -3.016847045E+00  1.611538918E+00  3.892311538E+00  0.000000000E+00  0.00000E+00  9.000E+00
#pdf  -1  1 0.14275890E-03 0.31876962E+00 0.87696733E+02 0.29811055E+01 0.11723251E+00
#rwgt            1           5   766.57163425350564         54217137    18372129           0
</event>
<event>
      6  10013  3.31628E+03  6.44065E+01 -1.00000E+00  1.33053E-01
       1    -1     0     0   501     0  0.000000000E+00  0.000000000E+00  1.219826945E+03  1.219826945E+03  0.000000000E+00  0.00000E+00  9.000E+00
      21    -1     0     0   511   501  0.000000000E+00  0.000000000E+00 -6.549619546E+00  6.549619546E+00  0.000000000E+00  0.00000E+00  9.000E+00
      23     2     1     2     0     0  5.827703080E+01  2.742242129E+01  9.410972682E+02  9.466799699E+02  7.994182644E+01  0.00000E+00  9.000E+00
      13     1     3     3     0     0  2.528248564E+01  5.260226321E+01  4.375782949E+02  4.414532564E+02  1.056583668E-01  0.00000E+00  9.000E+00
     -13     1     3     3     0     0  3.299454516E+01 -2.517984192E+01  5.035189733E+02  5.052267135E+02  1.056583668E-01  0.00000E+00  9.000E+00
       1     1     1     2   511     0 -5.827703080E+01 -2.742242129E+01  2.721800570E+02  2.796965945E+02  0.000000000E+00  0.00000E+00  9.000E+00
#pdf   1 -1 0.11307950E+00 0.33440869E-03 0.79941826E+02 0.34479411E+00 0.21506907E+01
#rwgt            1           6   991.96904838880550         54217137    18372267           0
</event>
<event>
      6  10013  3.31628E+03  1.29346E+00 -1.00000E+00  5.01617E-01
       1    -1     0     0   511     0  0.000000000E+00  0.000000000E+00  9.264761424E+00  9.264761424E+00  0.000000000E+00  0.00000E+00  9.000E+00
      -1    -1     0     0     0   501  0.000000000E+00  0.000000000E+00 -2.286956386E+02  2.286956386E+02  0.000000000E+00  0.00000E+00  9.000E+00
      23     2     1     2     0     0  3.826772287E-01  1.235552508E+00 -2.170506766E+02  2.352514543E+02  9.072253047E+01  0.00000E+00  9.000E+00
      13     1     3     3     0     0  1.591656159E+01  7.995884286E+00 -2.747602842E-01  1.781453775E+01  1.056583668E-01  0.00000E+00  9.000E+00
     -13     1     3     3     0     0 -1.553388436E+01 -6.760331778E+00 -2.167759163E+02  2.174369166E+02  1.056583668E-01  0.00000E+00  9.000E+00
      21     1     1     2   511   501 -3.826772287E-01 -1.235552508E+00 -2.380200666E+00  2.708945750E+00  6.664001875E-08  0.00000E+00  9.000E+00
#pdf   1 -1 0.13999176E-02 0.34788936E-01 0.90722530E+02 0.13270862E+01 0.27367544E+00
#rwgt            1           6   632.07936010606807         54217137    18372331           0
</event>
<event>
      6  10013  3.31628E+03  1.06130E+01 -1.00000E+00  1.92761E-01
      -2    -1     0     0     0   501  0.000000000E+00  0.000000000E+00  5.636176383E-01  5.636176383E-01  0.000000000E+00  0.00000E+00  9.000E+00
       2    -1     0     0   511     0  0.000000000E+00  0.000000000E+00 -6.108373790E+02  6.108373790E+02  0.000000000E+00  0.00000E+00  9.000E+00
      23     2     1     2     0     0  3.773883260E+00 -9.919307249E+00 -4.014500195E+02  4.023077399E+02  2.401592326E+01  0.00000E+00  9.000E+00
      13     1     3     3     0     0 -9.232214174E+00 -8.400148134E+00 -2.416063744E+02  2.419286001E+02  1.056583668E-01  0.00000E+00  9.000E+00
     -13     1     3     3     0     0  1.300609743E+01 -1.519159116E+00 -1.598436452E+02  1.603791398E+02  1.056583668E-01  0.00000E+00  9.000E+00
      21     1     1     2   511   501 -3.773883260E+00  9.919307249E+00 -2.088237418E+02  2.090932567E+02  4.672030912E-06  0.00000E+00  9.000E+00
#pdf  -2  2 0.60348463E-04 0.56551699E-01 0.24015923E+02 0.27388124E+01 0.62759926E+00
#rwgt            1           4   1654.9938800962632         54217137    18372566           0
</event>
<event>
      6  10013  3.31628E+03  1.06918E+01 -1.00000E+00  1.92401E-01
      -3    -1     0     0     0   501  0.000000000E+00  0.000000000E+00  2.977348942E+02  2.977348942E+02  0.000000000E+00  0.00000E+00  9.000E+00
      21    -1     0     0   501   511  0.000000000E+00  0.000000000E+00 -2.104983826E+01  2.104983826E+01  0.000000000E+00  0.00000E+00  9.000E+00
      23     2     1     2     0     0 -9.509540285E+00 -4.887035363E+00  2.883665159E+02  3.029489825E+02  9.224166099E+01  0.00000E+00  9.000E+00
      13     1     3     3     0     0  2.600725689E+01 -3.666217616E+01  1.511625103E+02  1.577041795E+02  1.056583668E-01  0.00000E+00  9.000E+00
     -13     1     3     3     0     0 -3.551679718E+01  3.177514079E+01  1.372040056E+02  1.452448029E+02  1.056583668E-01  0.00000E+00  9.000E+00
      -3     1     1     2     0   511  9.509540285E+00  4.887035363E+00 -1.168145996E+01  1.583574999E+01  0.000000000E+00  0.00000E+00  9.000E+00
#pdf  -3  3 0.45183295E-01 0.11142679E-02 0.92241661E+02 0.16614877E+00 0.13509375E+01
#rwgt            1           3   282.39468246746816         54217137    18372679           0
</event>
<event>
      6  10013  3.31628E+03  5.39132E+01 -1.00000E+00  1.37206E-01
       2    -1     0     0   501     0  0.000000000E+00  0.000000000E+00  7.515193833E+02  7.515193833E+02  0.000000000E+00  0.00000E+00  9.000E+00
      21    -1     0     0   511   501  0.000000000E+00  0.000000000E+00 -1.225124139E+01  1.225124139E+01  0.000000000E+00  0.00000E+00  9.000E+00
      23     2     1     2     0     0 -4.248068774E+01  3.319679505E+01  6.557036217E+02  6.643238295E+02  9.204496138E+01  0.00000E+00  9.000E+00
      13     1     3     3     0     0  1.852552104E+01  1.290677202E+01  4.008649542E+02  4.015003143E+02  1.056583668E-01  0.00000E+00  9.000E+00
     -13     1     3     3     0     0 -6.100620878E+01  2.029002303E+01  2.548386675E+02  2.628235152E+02  1.056583668E-01  0.00000E+00  9.000E+00
       2     1     1     2   511     0  4.248068774E+01 -3.319679505E+01  8.356452022E+01  9.944679518E+01  0.000000000E+00  0.00000E+00  9.000E+00
#pdf   2 -2 0.87617182E-01 0.57216864E-03 0.92044961E+02 0.61107120E+00 0.18030498E+01
#rwgt            1           7   1572.5162415521072         54217137    18372729           0
</event>
<event>
      6  10013  3.31628E+03  2.45575E+00 -1.00000E+00  3.25842E-01
       2    -1     0     0   511     0  0.000000000E+00  0.000000000E+00  1.283069323E+02  1.283069323E+02  0.000000000E+00  0.00000E+00  9.000E+00
      -2    -1     0     0     0   501  0.000000000E+00  0.000000000E+00 -1.298402275E+01  1.298402275E+01  0.000000000E+00  0.00000E+00  9.000E+00
      23     2     1     2     0     0 -1.385934976E+00  2.027289458E+00  1.109616527E+02  1.362858297E+02  7.909050696E+01  0.00000E+00  9.000E+00
      13     1     3     3     0     0  4.975437956E+00  5.073177608E+00 -1.155545569E+01  1.356583333E+01  1.056583668E-01  0.00000E+00  9.000E+00
     -13     1     3     3     0     0 -6.361372932E+00 -3.045888150E+00  1.225171084E+02  1.227199964E+02  1.056583668E-01  0.00000E+00  9.000E+00
      21     1     1     2   511   501  1.385934976E+00 -2.027289458E+00  4.361256850E+00  5.005125334E+00  8.429369702E-08  0.00000E+00  9.000E+00
#pdf   2 -2 0.19009876E-01 0.19470753E-02 0.79090507E+02 0.68015237E+00 0.10836220E+01
#rwgt            1           7   1899.9011165596639         54217137    18372777           0
</event>
<event>
      6  10013  3.31628E+03  2.43137E+00 -1.00000E+00  3.27454E-01
      21    -1     0     0   511   501  0.000000000E+00  0.000000000E+00  4.830657707E-01  4.830657707E-01  0.000000000E+00  0.00000E+00  9.000E+00
       1    -1     0     0   501     0  0.000000000E+00  0.000000000E+00 -5.105903177E+02  5.105903177E+02  0.000000000E+00  0.00000E+00  9.000E+00
      23     2     1     2     0     0  1.964843883E+00 -1.432107293E+00 -4.792189783E+02  4.800895653E+02  2.879670070E+01  0.00000E+00  9.000E+00
      13     1     3     3     0     0  5.691571292E+00 -6.511216126E+00 -4.492780334E+01  4.575268949E+01  1.056583668E-01  0.00000E+00  9.000E+00
     -13     1     3     3     0     0 -3.726727408E+00  5.079108833E+00 -4.342911750E+02  4.343368758E+02  1.056583668E-01  0.00000E+00  9.000E+00
       1     1     1     2   511     0 -1.964843883E+00  1.432107293E+00 -3.088827363E+01  3.098381820E+01  0.000000000E+00  0.00000E+00  9.000E+00
#pdf  -1  1 0.66730796E-04 0.73531336E-01 0.28796701E+02 0.28274631E+01 0.41244106E+00
#rwgt            1           5   443.55023815637992         54217137    18372919           0
</event>
<event>
      6  10013  3.31628E+03  6.67042E+00 -1.00000E+00  2.18484E-01
       2    -1     0     0   511     0  0.000000000E+00  0.000000000E+00  1.748344967E+03  1.748344967E+03  0.000000000E+00  0.00000E+00  9.000E+00
      -2    -1     0     0     0   501  0.000000000E+00  0.000000000E+00 -1.441628463E+00  1.441628463E+00  0.000000000E+00  0.00000E+00  9.000E+00
      23     2     1     2     0     0  6.239228921E+00 -2.359337493E+00  1.519728482E+03  1.522513830E+03  9.181072528E+01  0.00000E+00  9.000E+00
      13     1     3     3     0     0 -1.908717592E+00 -1.947865950E+01  7.063974871E+01  7.330106848E+01  1.056583668E-01  0.00000E+00  9.000E+00
     -13     1     3     3     0     0  8.147946512E+00  1.711932201E+01  1.449088734E+03  1.449212762E+03  1.056583668E-01  0.00000E+00  9.000E+00
      21     1     1     2   511   501 -6.239228921E+00  2.359337493E+00  2.271748565E+02  2.272727654E+02  3.814697266E-06  0.00000E+00  9.000E+00
#pdf   2 -2 0.23340343E+00 0.21369428E-03 0.91810725E+02 0.44265283E+00 0.26010060E+01
#rwgt            1           7   1337.7247149326247         54217137    18373017           0
</event>
<event>
      6  10013  3.31628E+03  6.16374E+00 -1.00000E+00  2.23594E-01
       1    -1     0     0   511     0  0.000000000E+00  0.000000000E+00  1.344397572E+01  1.344397572E+01  0.000000000E+00  0.00000E+00  9.000E+00
      -1    -1     0     0     0   501  0.000000000E+00  0.000000000E+00 -2.316841194E+02  2.316841194E+02  0.000000000E+00  0.00000E+00  9.000E+00
      23     2     1     2     0     0  1.689090004E+00  5.927791646E+00 -2.220444746E+02  2.378848449E+02  8.513200921E+01  0.00000E+00  9.000E+00
      13     1     3     3     0     0  3.532359936E+01  9.682855303E+00 -1.810862773E+02  1.847532553E+02  1.056583668E-01  0.00000E+00  9.000E+00
     -13     1     3     3     0     0 -3.363450935E+01 -3.755063657E+00 -4.095819733E+01  5.313158961E+01  1.056583668E-01  0.00000E+00  9.000E+00
      21     1     1     2   511   501 -1.689090004E+00 -5.927791646E+00  3.804330972E+00  7.243250167E+00  2.795705652E-07  0.00000E+00  9.000E+00
#pdf   1 -1 0.12153088E-02 0.35286811E-01 0.85132009E+02 0.13834299E+01 0.27102832E+00
#rwgt            1           6   446.54450189503967         54217137    18373163           0
</event>
<event>
      6  10013  3.31628E+03  4.49361E+00 -1.00000E+00  2.52006E-01
       2    -1     0     0   501     0  0.000000000E+00  0.000000000E+00  1.699922317E+03  1.699922317E+03  0.000000000E+00  0.00000E+00  9.000E+00
      21    -1     0     0   511   501  0.000000000E+00  0.000000000E+00 -1.013345509E+00  1.013345509E+00  0.000000000E+00  0.00000E+00  9.000E+00
      23     2     1     2     0     0  4.264717010E+00 -1.415895026E+00  1.694195282E+03  1.694423256E+03  2.742853229E+01  0.00000E+00  9.000E+00
      13     1     3     3     0     0  4.640099441E+00 -1.363308220E+01  1.153090598E+03  1.153180528E+03  1.056583668E-01  0.00000E+00  9.000E+00
     -13     1     3     3     0     0 -3.753824303E-01  1.221718718E+01  5.411046838E+02  5.412427280E+02  1.056583668E-01  0.00000E+00  9.000E+00
       2     1     1     2   511     0 -4.264717010E+00  1.415895026E+00  4.713689523E+00  6.512406530E+00  0.000000000E+00  0.00000E+00  9.000E+00
#pdf   2 -2 0.25723371E+00 0.17305755E-04 0.27428532E+02 0.45816412E+00 0.41802804E+01
#rwgt            1           7   3136.9168915704226         54217137    18373264           0
</event>
<event>
      6  10013  3.31628E+03  4.58378E+00 -1.00000E+00  2.50169E-01
      -2    -1     0     0     0   511  0.000000000E+00  0.000000000E+00  1.720748643E+00  1.720748643E+00  0.000000000E+00  0.00000E+00  9.000E+00
       2    -1     0     0   501     0  0.000000000E+00  0.000000000E+00 -1.300072789E+03  1.300072789E+03  0.000000000E+00  0.00000E+00  9.000E+00
      23     2     1     2     0     0  3.305368404E+00  3.175784191E+00 -1.256072126E+03  1.259265873E+03  8.951169308E+01  0.00000E+00  9.000E+00
      13     1     3     3     0     0  1.923983972E+01  3.986871628E+01 -8.703018921E+02  8.714270368E+02  1.056583668E-01  0.00000E+00  9.000E+00
     -13     1     3     3     0     0 -1.593447132E+01 -3.669293209E+01 -3.857702337E+02  3.878388364E+02  1.056583668E-01  0.00000E+00  9.000E+00
      21     1     1     2   501   511 -3.305368404E+00 -3.175784191E+00 -4.227991413E+01  4.252766399E+01  9.536743164E-07  0.00000E+00  9.000E+00
#pdf  -2  2 0.24535139E-03 0.19323434E+00 0.89511693E+02 0.24602465E+01 0.50058180E+00
#rwgt            1           4   1530.7391775152680         54217137    18373323           0
</event>
<event>
      5  10013  3.31628E+03  8.94427E-01 -1.00000E+00  4.45667E-01
      -4    -1     0     0     0   501  0.000000000E+00  0.000000000E+00  5.129762399E+01  5.129762399E+01  0.000000000E+00  0.00000E+00  9.000E+00
       4    -1     0     0   501     0  0.000000000E+00  0.000000000E+00 -2.367263750E+00  2.367263750E+00  0.000000000E+00  0.00000E+00  9.000E+00
      23     2     1     2     0     0  0.000000000E+00  0.000000000E+00  4.893036024E+01  5.366488774E+01  2.203951050E+01  0.00000E+00  9.000E+00
      13     1     3     3     0     0  3.957315226E+00 -8.039230487E+00  8.848447109E+00  1.259348048E+01  1.056583668E-01  0.00000E+00  9.000E+00
     -13     1     3     3     0     0 -3.957315226E+00  8.039230487E+00  4.008191313E+01  4.107140726E+01  1.056583668E-01  0.00000E+00  9.000E+00
#pdf  -4  4 0.78919422E-02 0.36419442E-03 0.22039510E+02 0.31744740E+00 0.11749146E+01
#rwgt            1           2   428.94593732722012         54217137    18373533           0
</event>
<event>
      6  10013  3.31628E+03  1.71749E+01 -1.00000E+00  1.71973E-01
       3    -1     0     0   501     0  0.000000000E+00  0.000000000E+00  4.629458093E+00  4.629458093E+00  0.000000000E+00  0.00000E+00  9.000E+00
      21    -1     0     0   511   501  0.000000000E+00  0.000000000E+00 -6.575316825E+02  6.575316825E+02  0.000000000E+00  0.00000E+00  9.000E+00
      23     2     1     2     0     0  1.690240947E+01 -3.047357445E+00 -5.534596551E+02  5.612463131E+02  9.156886056E+01  0.00000E+00  9.000E+00
      13     1     3     3     0     0 -2.160980906E+01  3.264047174E+01 -1.878227036E+02  1.918587068E+02  1.056583668E-01  0.00000E+00  9.000E+00
     -13     1     3     3     0     0  3.851221853E+01 -3.568782918E+01 -3.656369515E+02  3.693876062E+02  1.056583668E-01  0.00000E+00  9.000E+00
       3     1     1     2   511     0 -1.690240947E+01  3.047357445E+00 -9.944256928E+01  1.009148275E+02  0.000000000E+00  0.00000E+00  9.000E+00
#pdf   3 -3 0.58870787E-03 0.84277001E-01 0.91568861E+02 0.17372486E+01 0.81095218E-01
#rwgt            1           8   191.55639652238898         54217137    18373671           0
</event>
<event>
      6  10013  3.31628E+03  2.68439E+01 -1.00000E+00  1.56434E-01
      -3    -1     0     0     0   501  0.000000000E+00  0.000000000E+00  3.543050665E+01  3.543050665E+01  0.000000000E+00  0.00000E+00  9.000E+00
      21    -1     0     0   501   511  0.000000000E+00  0.000000000E+00 -2.458620172E+02  2.458620172E+02  0.000000000E+00  0.00000E+00  9.000E+00
      23     2     1     2     0     0  2.064661057E+01 -1.715552079E+01 -3.375095468E+01  1.025843449E+02  9.307967794E+01  0.00000E+00  9.000E+00
      13     1     3     3     0     0 -1.247371148E+01 -1.127596630E+00  2.801608589E+01  3.068838843E+01  1.056583668E-01  0.00000E+00  9.000E+00
     -13     1     3     3     0     0  3.312032204E+01 -1.602792416E+01 -6.176704057E+01  7.189595642E+01  1.056583668E-01  0.00000E+00  9.000E+00
      -3     1     1     2     0   511 -2.064661057E+01  1.715552079E+01 -1.766805558E+02  1.787081790E+02  0.000000000E+00  0.00000E+00  9.000E+00
#pdf  -3  3 0.50875295E-02 0.10076648E-01 0.93079678E+02 0.69447814E+00 0.48771910E+00
#rwgt            1           3   275.57261653116029         54217137    18373724           0
</event>
<event>
      6  10013 -3.31628E+03  3.64216E+01 -1.00000E+00  1.47378E-01
      21    -1     0     0   501   511  0.000000000E+00  0.000000000E+00  3.992212136E+01  3.992212136E+01  0.000000000E+00  0.00000E+00  9.000E+00
      -4    -1     0     0     0   501  0.000000000E+00  0.000000000E+00 -6.662600002E+01  6.662600002E+01  0.000000000E+00  0.00000E+00  9.000E+00
      23     2     1     2     0     0 -1.016774474E+01 -3.497359397E+01 -2.302104117E+01  6.994076419E+01  5.509271141E+01  0.00000E+00  9.000E+00
      13     1     3     3     0     0 -8.621655587E+00 -4.958627159E+01 -2.277650180E+01  5.524410804E+01  1.056583668E-01  0.00000E+00  9.000E+00
     -13     1     3     3     0     0 -1.546089157E+00  1.461267762E+01 -2.445393745E-01  1.469665615E+01  1.056583668E-01  0.00000E+00  9.000E+00
      -4     1     1     2     0   511  1.016774474E+01  3.497359397E+01 -3.682837485E+00  3.660735719E+01  0.000000000E+00  0.00000E+00  9.000E+00
#pdf   4 -4 0.30107607E-02 0.59652047E-02 0.55092711E+02 0.63868003E+00 0.44579871E+00
#rwgt            1           9  -2732.4019518767345         54217137    18373778           0
</event>
<event>
      6  10013  3.31628E+03  4.72031E+01 -1.00000E+00  1.40488E-01
      21    -1     0     0   511   501  0.000000000E+00  0.000000000E+00  5.086289444E+02  5.086289444E+02  0.000000000E+00  0.00000E+00  9.000E+00
       5    -1     0     0   501     0  0.000000000E+00  0.000000000E+00 -1.347775798E+01  1.347775798E+01  0.000000000E+00  0.00000E+00  9.000E+00
      23     2     1     2     0     0 -3.037602898E+00  4.710525621E+01  2.287951924E+02  2.516004220E+02  9.342055489E+01  0.00000E+00  9.000E+00
      13     1     3     3     0     0 -1.027556473E+01  3.521460248E+01  2.339105871E+02  2.367695702E+02  1.056583668E-01  0.00000E+00  9.000E+00
     -13     1     3     3     0     0  7.237961831E+00  1.189065373E+01 -5.115394690E+00  1.483085176E+01  1.056583668E-01  0.00000E+00  9.000E+00
       5     1     1     2   511     0  3.037602898E+00 -4.710525621E+01  2.663559940E+02  2.705062804E+02  0.000000000E+00  0.00000E+00  9.000E+00
#pdf  -5  5 0.32982334E-01 0.15657297E-02 0.93420555E+02 0.78052262E-01 0.68486455E+00
#rwgt            1           1   58.819616680102968         54217137    18373895           0
</event>
<event>
      6  10013  3.31628E+03  1.17057E+01 -1.00000E+00  1.88115E-01
       1    -1     0     0   501     0  0.000000000E+00  0.000000000E+00  6.299780476E+01  6.299780476E+01  0.000000000E+00  0.00000E+00  9.000E+00
      21    -1     0     0   511   501  0.000000000E+00  0.000000000E+00 -5.282850687E+00  5.282850687E+00  0.000000000E+00  0.00000E+00  9.000E+00
      23     2     1     2     0     0  1.170545591E+01  7.509322433E-02  4.172132418E+01  4.846098002E+01  2.169733522E+01  0.00000E+00  9.000E+00
      13     1     3     3     0     0 -6.524843416E-01  2.378539095E-01  3.374253716E+01  3.374984871E+01  1.056583668E-01  0.00000E+00  9.000E+00
     -13     1     3     3     0     0  1.235794025E+01 -1.627606852E-01  7.978787018E+00  1.471113130E+01  1.056583668E-01  0.00000E+00  9.000E+00
       1     1     1     2   511     0 -1.170545591E+01 -7.509322433E-02  1.599362990E+01  1.981967544E+01  0.000000000E+00  0.00000E+00  9.000E+00
#pdf   1 -1 0.61052697E-02 0.45626929E-03 0.21697335E+02 0.67569671E+00 0.14151515E+01
#rwgt            1           6   198.41315779922374         54217137    18374150           0
</event>
<event>
      6  10013  3.31628E+03  4.17104E+01 -1.00000E+00  1.43691E-01
       3    -1     0     0   501     0  0.000000000E+00  0.000000000E+00  1.204174933E+02  1.204174933E+02  0.000000000E+00  0.00000E+00  9.000E+00
      -3    -1     0     0     0   511  0.000000000E+00  0.000000000E+00 -6.327801245E+01  6.327801245E+01  0.000000000E+00  0.00000E+00  9.000E+00
      23     2     1     2     0     0  1.598583934E+00 -4.167972897E+01  8.101778993E+01  1.356337858E+02  1.004633579E+02  0.00000E+00  9.000E+00
      13     1     3     3     0     0 -2.724818344E+00 -3.981399345E+01 -1.263726820E+01  4.186036814E+01  1.056583668E-01  0.00000E+00  9.000E+00
     -13     1     3     3     0     0  4.323402279E+00 -1.865735523E+00  9.365505814E+01  9.377341763E+01  1.056583668E-01  0.00000E+00  9.000E+00
      21     1     1     2   501   511 -1.598583934E+00  4.167972897E+01 -2.387830911E+01  4.806171994E+01  8.920806376E-07  0.00000E+00  9.000E+00
#pdf   3 -3 0.15391656E-01 0.38801038E-02 0.10046336E+03 0.38180651E+00 0.79657823E+00
#rwgt            1           8   239.60691847221648         54217137    18374263           0
</event>
<event>
      6  10013  3.31628E+03  4.01960E+00 -1.00000E+00  2.62863E-01
      21    -1     0     0   501   511  0.000000000E+00  0.000000000E+00  9.127032382E-01  9.127032382E-01  0.000000000E+00  0.00000E+00  9.000E+00
      -1    -1     0     0     0   501  0.000000000E+00  0.000000000E+00 -3.615080985E+02  3.615080985E+02  0.000000000E+00  0.00000E+00  9.000E+00
      23     2     1     2     0     0 -3.267126359E+00 -2.341595436E+00 -3.546183077E+02  3.552178329E+02  2.023382083E+01  0.00000E+00  9.000E+00
      13     1     3     3     0     0 -2.986218206E-01 -9.166635416E+00 -2.941719923E+02  2.943149480E+02  1.056583668E-01  0.00000E+00  9.000E+00
     -13     1     3     3     0     0 -2.968504539E+00  6.825039980E+00 -6.044631533E+01  6.090288492E+01  1.056583668E-01  0.00000E+00  9.000E+00
      -1     1     1     2     0   511  3.267126359E+00  2.341595436E+00 -5.977087637E+00  7.202968864E+00  0.000000000E+00  0.00000E+00  9.000E+00
#pdf   1 -1 0.45233400E-04 0.53556213E-01 0.20233821E+02 0.28148490E+01 0.20574876E+00
#rwgt            1           6   148.75461839352528         54217137    18374292           0
</event>
<event>
      6  10013  3.31628E+03  2.07780E+00 -1.00000E+00  3.55306E-01
       1    -1     0     0   501     0  0.000000000E+00  0.000000000E+00  1.194608603E+01  1.194608603E+01  0.000000000E+00  0.00000E+00  9.000E+00
      21    -1     0     0   511   501  0.000000000E+00  0.000000000E+00 -2.024919463E+02  2.024919463E+02  0.000000000E+00  0.00000E+00  9.000E+00
      23     2     1     2     0     0 -1.971226342E+00  6.569056515E-01 -1.837038720E+02  2.072875036E+02  9.600353788E+01  0.00000E+00  9.000E+00
      13     1     3     3     0     0 -4.287681929E+01 -5.397910458E+00 -4.433133677E+01  6.190991563E+01  1.056583668E-01  0.00000E+00  9.000E+00
     -13     1     3     3     0     0  4.090559295E+01  6.054816110E+00 -1.393725352E+02  1.453775879E+02  1.056583668E-01  0.00000E+00  9.000E+00
       1     1     1     2   511     0  1.971226342E+00 -6.569056515E-01 -6.841988247E+00  7.150528757E+00  0.000000000E+00  0.00000E+00  9.000E+00
#pdf   1 -1 0.18137008E-02 0.30069218E-01 0.96003538E+02 0.12173998E+01 0.29988248E+00
#rwgt            1           6   471.31952203142822         54217137    18374401           0
</event>
<event>
      6  10013  3.31628E+03  5.16575E+00 -1.00000E+00  2.35981E-01
      -2    -1     0     0     0   511  0.000000000E+00  0.000000000E+00  2.021910068E+00  2.021910068E+00  0.000000000E+00  0.00000E+00  9.000E+00
       2    -1     0     0   501     0  0.000000000E+00  0.000000000E+00 -1.159993390E+03  1.159993390E+03  0.000000000E+00  0.00000E+00  9.000E+00
      23     2     1     2     0     0  3.085076652E+00  4.143342521E+00 -1.115513338E+03  1.119244062E+03  9.116237270E+01  0.00000E+00  9.000E+00
      13     1     3     3     0     0 -4.108604850E+01 -4.396034415E+00 -7.190525445E+02  7.202388225E+02  1.056583668E-01  0.00000E+00  9.000E+00
     -13     1     3     3     0     0  4.417112515E+01  8.539376937E+00 -3.964607938E+02  3.990052398E+02  1.056583668E-01  0.00000E+00  9.000E+00
      21     1     1     2   501   511 -3.085076652E+00 -4.143342521E+00 -4.245814199E+01  4.277123808E+01  6.743495762E-07  0.00000E+00  9.000E+00
#pdf  -2  2 0.28651914E-03 0.17162909E+00 0.91162373E+02 0.23329446E+01 0.52834273E+00
#rwgt            1           4   1662.2871766230598         54217137    18374538           0
</event>
<event>
      6  10013  3.31628E+03  2.46714E+00 -1.00000E+00  3.25100E-01
       1    -1     0     0   501     0  0.000000000E+00  0.000000000E+00  5.384351565E-01  5.384351565E-01  0.000000000E+00  0.00000E+00  9.000E+00
      -1    -1     0     0     0   511  0.000000000E+00  0.000000000E+00 -6.589771801E+02  6.589771801E+02  0.000000000E+00  0.00000E+00  9.000E+00
      23     2     1     2     0     0  1.272933578E+00  2.113387732E+00 -2.595994795E+02  2.606687193E+02  2.345644237E+01  0.00000E+00  9.000E+00
      13     1     3     3     0     0  8.961651770E-01  2.313158800E+00 -2.349459296E+00  3.418323907E+00  1.056583668E-01  0.00000E+00  9.000E+00
     -13     1     3     3     0     0  3.767684009E-01 -1.997710682E-01 -2.572500202E+02  2.572503954E+02  1.056583668E-01  0.00000E+00  9.000E+00
      21     1     1     2   501   511 -1.272933578E+00 -2.113387732E+00 -3.988392655E+02  3.988468960E+02  7.629394531E-06  0.00000E+00  9.000E+00
#pdf   1 -1 0.81798004E-04 0.39801082E-01 0.23456442E+02 0.24892437E+01 0.24694742E+00
#rwgt            1           6   119.05713715388256         54217137    18374703           0
</event>
<event>
      6  10013  3.31628E+03  2.68314E+01 -1.00000E+00  1.56448E-01
      21    -1     0     0   511   501  0.000000000E+00  0.000000000E+00  8.760014066E+00  8.760014066E+00  0.000000000E+00  0.00000E+00  9.000E+00
       3    -1     0     0   501     0  0.000000000E+00  0.000000000E+00 -4.600405176E+02  4.600405176E+02  0.000000000E+00  0.00000E+00  9.000E+00
      23     2     1     2     0     0 -2.208462594E+01 -1.523785268E+01 -2.966159392E+02  3.118258512E+02  9.238194202E+01  0.00000E+00  9.000E+00
      13     1     3     3     0     0  2.951749078E+01  1.821217066E+01 -1.039226758E+02  1.095577434E+02  1.056583668E-01  0.00000E+00  9.000E+00
     -13     1     3     3     0     0 -5.160211672E+01 -3.345002334E+01 -1.926932634E+02  2.022681078E+02  1.056583668E-01  0.00000E+00  9.000E+00
       3     1     1     2   511     0  2.208462594E+01  1.523785268E+01 -1.546645643E+02  1.569746805E+02  0.000000000E+00  0.00000E+00  9.000E+00
#pdf  -3  3 0.11235634E-02 0.44945882E-01 0.92381942E+02 0.13467208E+01 0.16699638E+00
#rwgt            1           3   259.82700978953261         54217137    18374782           0
</event>
<event>
      6  10013  3.31628E+03  1.92472E+01 -1.00000E+00  1.67713E-01
      21    -1     0     0   501   511  0.000000000E+00  0.000000000E+00  1.361959159E+02  1.361959159E+02  0.000000000E+00  0.00000E+00  9.000E+00
      -5    -1     0     0     0   501  0.000000000E+00  0.000000000E+00 -4.519289201E+00  4.519289201E+00  0.000000000E+00  0.00000E+00  9.000E+00
      23     2     1     2     0     0  3.157317459E+00  1.898645818E+01  7.445979366E+01  8.034782789E+01  2.326066050E+01  0.00000E+00  9.000E+00
      13     1     3     3     0     0  1.280462196E+01  1.227108919E+01  3.599840580E+01  4.013021751E+01  1.056583668E-01  0.00000E+00  9.000E+00
     -13     1     3     3     0     0 -9.647304506E+00  6.715368991E+00  3.846138786E+01  4.021761038E+01  1.056583668E-01  0.00000E+00  9.000E+00
      -5     1     1     2     0   511 -3.157317459E+00 -1.898645818E+01  5.721683300E+01  6.036737717E+01  0.000000000E+00  0.00000E+00  9.000E+00
#pdf   5 -5 0.91746540E-02 0.34895360E-03 0.23260661E+02 0.14874866E+00 0.75649756E+00
#rwgt            1          10   29.546719144635542         54217137    18374832           0
</event>
<event>
      6  10013  3.31628E+03  5.06590E+00 -1.00000E+00  2.37440E-01
       3    -1     0     0   511     0  0.000000000E+00  0.000000000E+00  8.080905793E+00  8.080905793E+00  0.000000000E+00  0.00000E+00  9.000E+00
      -3    -1     0     0     0   501  0.000000000E+00  0.000000000E+00 -2.984698294E+02  2.984698294E+02  0.000000000E+00  0.00000E+00  9.000E+00
      23     2     1     2     0     0 -8.421810805E-02 -5.065197109E+00 -2.834646346E+02  2.979711610E+02  9.170032948E+01  0.00000E+00  9.000E+00
      13     1     3     3     0     0  2.459629440E+01  3.357257861E+01 -1.808979661E+02  1.856237620E+02  1.056583668E-01  0.00000E+00  9.000E+00
     -13     1     3     3     0     0 -2.468051250E+01 -3.863777572E+01 -1.025666685E+02  1.123473990E+02  1.056583668E-01  0.00000E+00  9.000E+00
      21     1     1     2   511   501  8.421810805E-02  5.065197109E+00 -6.924289006E+00  8.579574155E+00  1.460009660E-07  0.00000E+00  9.000E+00
#pdf   3 -3 0.11141877E-02 0.44657737E-01 0.91700329E+02 0.13496763E+01 0.16802337E+00
#rwgt            1           8   243.97582146557124         54217137    18374918           0
</event>
<event>
      6  10013  3.31628E+03  7.62093E+00 -1.00000E+00  2.10398E-01
      21    -1     0     0   511   501  0.000000000E+00  0.000000000E+00  1.607061775E-01  1.607061775E-01  0.000000000E+00  0.00000E+00  9.000E+00
       2    -1     0     0   501     0  0.000000000E+00  0.000000000E+00 -1.518486877E+03  1.518486877E+03  0.000000000E+00  0.00000E+00  9.000E+00
      23     2     1     2     0     0 -5.794277345E+00 -4.950242934E+00 -9.026139959E+02  9.028882463E+02  2.090648772E+01  0.00000E+00  9.000E+00
      13     1     3     3     0     0 -1.329033223E+01 -1.485996964E+00 -4.491582156E+02  4.493572687E+02  1.056583668E-01  0.00000E+00  9.000E+00
     -13     1     3     3     0     0  7.496054884E+00 -3.464245970E+00 -4.534557803E+02  4.535309777E+02  1.056583668E-01  0.00000E+00  9.000E+00
       2     1     1     2   511     0  5.794277345E+00  4.950242934E+00 -6.157121753E+02  6.157593372E+02  0.000000000E+00  0.00000E+00  9.000E+00
#pdf  -2  2 0.19820398E-04 0.13048575E+00 0.20906488E+02 0.36151917E+01 0.61229260E+00
#rwgt            1           4   2636.3335607700010         54217137    18375001           0
</event>
<event>
      6  10013  3.31628E+03  9.51680E-01 -1.00000E+00  6.92254E-01
       2    -1     0     0   511     0  0.000000000E+00  0.000000000E+00  1.807570525E-01  1.807570525E-01  0.000000000E+00  0.00000E+00  9.000E+00
      -2    -1     0     0     0   501  0.000000000E+00  0.000000000E+00 -1.167260722E+03  1.167260722E+03  0.000000000E+00  0.00000E+00  9.000E+00
      23     2     1     2     0     0  2.519711542E-01 -9.177178455E-01 -1.158055629E+03  1.158367101E+03  2.684390824E+01  0.00000E+00  9.000E+00
      13     1     3     3     0     0 -7.904747570E+00 -1.108784444E+01 -5.198891830E+02  5.200674947E+02  1.056583668E-01  0.00000E+00  9.000E+00
     -13     1     3     3     0     0  8.156718724E+00  1.017012659E+01 -6.381664462E+02  6.382996065E+02  1.056583668E-01  0.00000E+00  9.000E+00
      21     1     1     2   511   501 -2.519711542E-01  9.177178455E-01 -9.024335825E+00  9.074377807E+00  2.665600750E-07  0.00000E+00  9.000E+00
#pdf   2 -2 0.23944351E-04 0.17807449E+00 0.26843908E+02 0.37722180E+01 0.37864497E-01
#rwgt            1           7   169.88446151979960         54217137    18375077           0
</event>
<event>
      6  10013  3.31628E+03  1.05023E+01 -1.00000E+00  1.93272E-01
      -1    -1     0     0     0   501  0.000000000E+00  0.000000000E+00  3.220099913E+01  3.220099913E+01  0.000000000E+00  0.00000E+00  9.000E+00
       1    -1     0     0   511     0  0.000000000E+00  0.000000000E+00 -5.719326659E+02  5.719326659E+02  0.000000000E+00  0.00000E+00  9.000E+00
      23     2     1     2     0     0 -4.101409081E+00 -9.668325922E+00 -3.449926921E+01  9.879212346E+01  9.197492049E+01  0.00000E+00  9.000E+00
      13     1     3     3     0     0 -1.155062704E+01  2.145512621E+01 -5.543210540E+01  6.055137405E+01  1.056583668E-01  0.00000E+00  9.000E+00
     -13     1     3     3     0     0  7.449217959E+00 -3.112345213E+01  2.093283619E+01  3.824074941E+01  1.056583668E-01  0.00000E+00  9.000E+00
      21     1     1     2   511   501  4.101409081E+00  9.668325922E+00 -5.052323975E+02  5.053415415E+02  5.394796609E-06  0.00000E+00  9.000E+00
#pdf  -1  1 0.49136743E-02 0.10186987E-01 0.91974920E+02 0.75283394E+00 0.67211391E+00
#rwgt            1           5   627.51383243832345         54217137    18375377           0
</event>
<event>
      6  10013  3.31628E+03  7.97543E+00 -1.00000E+00  2.07779E-01
       5    -1     0     0   501     0  0.000000000E+00  0.000000000E+00  1.185859084E+02  1.185859084E+02  0.000000000E+00  0.00000E+00  9.000E+00
      21    -1     0     0   511   501  0.000000000E+00  0.000000000E+00 -2.105341499E+01  2.105341499E+01  0.000000000E+00  0.00000E+00  9.000E+00
      23     2     1     2     0     0  2.946637999E+00  7.411126119E+00  9.474420300E+01  1.311905347E+02  9.039294740E+01  0.00000E+00  9.000E+00
      13     1     3     3     0     0  1.288834305E+01  2.177236468E+01  1.069367048E+02  1.098891043E+02  1.056583668E-01  0.00000E+00  9.000E+00
     -13     1     3     3     0     0 -9.941705054E+00 -1.436123856E+01 -1.219250183E+01  2.130143040E+01  1.056583668E-01  0.00000E+00  9.000E+00
       5     1     1     2   511     0 -2.946637999E+00 -7.411126119E+00  2.788290379E+00  8.448788617E+00  0.000000000E+00  0.00000E+00  9.000E+00
#pdf   5 -5 0.17312341E-01 0.27927149E-02 0.90392947E+02 0.14293900E+00 0.49653512E+00
#rwgt            1          10   70.321462001112479         54217137    18375452           0
</event>
<event>
      6  10013  3.31628E+03  4.26054E+00 -1.00000E+00  2.57073E-01
      -1    -1     0     0     0   501  0.000000000E+00  0.000000000E+00  5.722775457E+00  5.722775457E+00  0.000000000E+00  0.00000E+00  9.000E+00
       1    -1     0     0   511     0  0.000000000E+00  0.000000000E+00 -4.918921517E+02  4.918921517E+02  0.000000000E+00  0.00000E+00  9.000E+00
      23     2     1     2     0     0  4.038245122E+00  1.358234011E+00 -3.569647589E+02  3.683400829E+02  9.073271365E+01  0.00000E+00  9.000E+00
      13     1     3     3     0     0  3.453237201E+01  3.235780026E+01 -1.903314780E+02  1.961264761E+02  1.056583668E-01  0.00000E+00  9.000E+00
     -13     1     3     3     0     0 -3.049412688E+01 -3.099956625E+01 -1.666332809E+02  1.722136067E+02  1.056583668E-01  0.00000E+00  9.000E+00
      21     1     1     2   511   501 -4.038245122E+00 -1.358234011E+00 -1.292046174E+02  1.292748443E+02  0.000000000E+00  0.00000E+00  9.000E+00
#pdf  -1  1 0.87406181E-03 0.55731271E-01 0.90732714E+02 0.15338289E+01 0.43287219E+00
#rwgt            1           5   849.10812814191513         54217137    18375938           0
</event>
<event>
      6  10013  3.31628E+03  8.68251E+00 -1.00000E+00  2.03065E-01
      21    -1     0     0   511   501  0.000000000E+00  0.000000000E+00  2.436736443E+00  2.436736443E+00  0.000000000E+00  0.00000E+00  9.000E+00
       2    -1     0     0   501     0  0.000000000E+00  0.000000000E+00 -5.079544676E+02  5.079544676E+02  0.000000000E+00  0.00000E+00  9.000E+00
      23     2     1     2     0     0 -8.516279039E+00 -1.690845197E+00 -4.982174160E+02  4.990474583E+02  2.742965659E+01  0.00000E+00  9.000E+00
      13     1     3     3     0     0 -4.554159184E+00  1.245333255E+01 -2.962256836E+02  2.965223308E+02  1.056583668E-01  0.00000E+00  9.000E+00
     -13     1     3     3     0     0 -3.962119854E+00 -1.414417775E+01 -2.019917324E+02  2.025251275E+02  1.056583668E-01  0.00000E+00  9.000E+00
       2     1     1     2   511     0  8.516279039E+00  1.690845197E+00 -7.300315154E+00  1.134374574E+01  0.000000000E+00  0.00000E+00  9.000E+00
#pdf  -2  2 0.60872602E-04 0.73136162E-01 0.27429657E+02 0.28589577E+01 0.62788345E+00
#rwgt            1           4   2007.0887811133841         54217137    18376068           0
</event>
<event>
      6  10013  3.31628E+03  1.74585E+01 -1.00000E+00  1.71347E-01
      21    -1     0     0   511   501  0.000000000E+00  0.000000000E+00  2.789074480E+02  2.789074480E+02  0.000000000E+00  0.00000E+00  9.000E+00
       3    -1     0     0   501     0  0.000000000E+00  0.000000000E+00 -1.352706382E+01  1.352706382E+01  0.000000000E+00  0.00000E+00  9.000E+00
      23     2     1     2     0     0  1.467316296E+01 -9.460322288E+00  1.130992963E+02  1.391559121E+02  7.917144459E+01  0.00000E+00  9.000E+00
      13     1     3     3     0     0 -3.072886481E+01 -9.050775668E+00  6.796147219E+01  7.513289918E+01  1.056583668E-01  0.00000E+00  9.000E+00
     -13     1     3     3     0     0  4.540202777E+01 -4.095466199E-01  4.513782414E+01  6.402301294E+01  1.056583668E-01  0.00000E+00  9.000E+00
       3     1     1     2   511     0 -1.467316296E+01  9.460322288E+00  1.522810879E+02  1.532785997E+02  0.000000000E+00  0.00000E+00  9.000E+00
#pdf  -3  3 0.18948999E-01 0.19573304E-02 0.79171445E+02 0.32967366E+00 0.10452525E+01
#rwgt            1           3   380.07950181925059         54217137    18376124           0
</event>
<event>
      6  10013  3.31628E+03  1.75962E+01 -1.00000E+00  1.71048E-01
      -2    -1     0     0     0   501  0.000000000E+00  0.000000000E+00  2.531781142E+02  2.531781142E+02  0.000000000E+00  0.00000E+00  9.000E+00
      21    -1     0     0   501   511  0.000000000E+00  0.000000000E+00 -1.489073573E+01  1.489073573E+01  0.000000000E+00  0.00000E+00  9.000E+00
      23     2     1     2     0     0 -2.334557614E-01 -1.759462071E+01  1.806601575E+02  2.078150386E+02  1.011897850E+02  0.00000E+00  9.000E+00
      13     1     3     3     0     0  3.537640551E+00 -3.271443084E+01  7.235213357E+00  3.369136925E+01  1.056583668E-01  0.00000E+00  9.000E+00
     -13     1     3     3     0     0 -3.771096312E+00  1.511981013E+01  1.734249441E+02  1.741236694E+02  1.056583668E-01  0.00000E+00  9.000E+00
      -2     1     1     2     0   511  2.334557614E-01  1.759462071E+01  5.762722103E+01  6.025381136E+01  0.000000000E+00  0.00000E+00  9.000E+00
#pdf  -2  2 0.29440895E-01 0.20579538E-02 0.10118979E+03 0.27515210E+00 0.12063052E+01
#rwgt            1           4   591.68329492293140         54217137    18376181           0
</event>
<event>
      6  10013  3.31628E+03  1.00199E+01 -1.00000E+00  1.95599E-01
       2    -1     0     0   501     0  0.000000000E+00  0.000000000E+00  7.341035047E+02  7.341035047E+02  0.000000000E+00  0.00000E+00  9.000E+00
      21    -1     0     0   511   501  0.000000000E+00  0.000000000E+00 -3.496882382E+00  3.496882382E+00  0.000000000E+00  0.00000E+00  9.000E+00
      23     2     1     2     0     0 -8.760291573E+00  4.863731753E+00  6.737222192E+02  6.798402459E+02  9.044740274E+01  0.00000E+00  9.000E+00
      13     1     3     3     0     0 -3.256036327E+01  6.794875797E+00  6.218158745E+02  6.227048583E+02  1.056583668E-01  0.00000E+00  9.000E+00
     -13     1     3     3     0     0  2.380007169E+01 -1.931144044E+00  5.190634470E+01  5.713538758E+01  1.056583668E-01  0.00000E+00  9.000E+00
       2     1     1     2   511     0  8.760291573E+00 -4.863731753E+00  5.688440307E+01  5.776014116E+01  0.000000000E+00  0.00000E+00  9.000E+00
#pdf   2 -2 0.10348710E+00 0.46775591E-03 0.90447403E+02 0.59976274E+00 0.19401656E+01
#rwgt            1           7   1525.4477845960471         54217137    18376268           0
</event>
<event>
      6  10013  3.31628E+03  1.97417E+01 -1.00000E+00  1.66794E-01
       3    -1     0     0   501     0  0.000000000E+00  0.000000000E+00  1.537670540E+01  1.537670540E+01  0.000000000E+00  0.00000E+00  9.000E+00
      21    -1     0     0   511   501  0.000000000E+00  0.000000000E+00 -2.656446005E+02  2.656446005E+02  0.000000000E+00  0.00000E+00  9.000E+00
      23     2     1     2     0     0 -1.117189390E+00  1.971005885E+01 -1.386489477E+02  1.676699761E+02  9.219520419E+01  0.00000E+00  9.000E+00
      13     1     3     3     0     0 -1.177459866E+01 -3.563681903E+01 -4.807479536E+01  6.099033659E+01  1.056583668E-01  0.00000E+00  9.000E+00
     -13     1     3     3     0     0  1.065740927E+01  5.534687789E+01 -9.057415231E+01  1.066796396E+02  1.056583668E-01  0.00000E+00  9.000E+00
       3     1     1     2   511     0  1.117189390E+00 -1.971005885E+01 -1.116189474E+02  1.133513297E+02  0.000000000E+00  0.00000E+00  9.000E+00
#pdf   3 -3 0.21829031E-02 0.23040691E-01 0.92195204E+02 0.10199386E+01 0.29022341E+00
#rwgt            1           8   345.00503132404401         54217137    18376433           0
</event>
<event>
      6  10013  3.31628E+03  1.52139E+01 -1.00000E+00  1.76759E-01
      21    -1     0     0   511   501  0.000000000E+00  0.000000000E+00  3.812010135E+00  3.812010135E+00  0.000000000E+00  0.00000E+00  9.000E+00
       1    -1     0     0   501     0  0.000000000E+00  0.000000000E+00 -6.455482582E+02  6.455482582E+02  0.000000000E+00  0.00000E+00  9.000E+00
      23     2     1     2     0     0 -5.535436507E+00  1.417120107E+01 -6.287322507E+02  6.293460748E+02  2.325456335E+01  0.00000E+00  9.000E+00
      13     1     3     3     0     0 -1.152405198E+01 -8.605320387E-01 -2.810254114E+02  2.812629326E+02  1.056583668E-01  0.00000E+00  9.000E+00
     -13     1     3     3     0     0  5.988615477E+00  1.503173311E+01 -3.477068394E+02  3.480831421E+02  1.056583668E-01  0.00000E+00  9.000E+00
       1     1     1     2   511     0  5.535436507E+00 -1.417120107E+01 -1.300399730E+01  2.001419354E+01  0.000000000E+00  0.00000E+00  9.000E+00
#pdf  -1  1 0.39512357E-04 0.80983535E-01 0.23254563E+02 0.30778477E+01 0.40530000E+00
#rwgt            1           5   418.68509827304024         54217137    18376492           0
</event>
<event>
      6  10013  3.31628E+03  3.91473E+01 -1.00000E+00  1.45391E-01
      21    -1     0     0   511   501  0.000000000E+00  0.000000000E+00  3.220531655E+00  3.220531655E+00  0.000000000E+00  0.00000E+00  9.000E+00
       2    -1     0     0   501     0  0.000000000E+00  0.000000000E+00 -2.106623764E+03  2.106623764E+03  0.000000000E+00  0.00000E+00  9.000E+00
      23     2     1     2     0     0 -2.875991497E+01  2.655891687E+01 -1.900145116E+03  1.902850646E+03  9.357677988E+01  0.00000E+00  9.000E+00
      13     1     3     3     0     0 -4.094054584E+01  8.327746516E+00 -1.792919073E+03  1.793405780E+03  1.056583668E-01  0.00000E+00  9.000E+00
     -13     1     3     3     0     0  1.218063087E+01  1.823117036E+01 -1.072260429E+02  1.094448664E+02  1.056583668E-01  0.00000E+00  9.000E+00
       2     1     1     2   511     0  2.875991497E+01 -2.655891687E+01 -2.032581171E+02  2.069936495E+02  0.000000000E+00  0.00000E+00  9.000E+00
#pdf  -2  2 0.19199418E-03 0.26987423E+00 0.93576780E+02 0.27152602E+01 0.38773723E+00
#rwgt            1           4   1988.9800442725973         54217137    18376573           0
</event>
<event>
      6  10013  3.31628E+03  9.11054E+00 -1.00000E+00  2.00492E-01
       1    -1     0     0   511     0  0.000000000E+00  0.000000000E+00  1.403080729E+03  1.403080729E+03  0.000000000E+00  0.00000E+00  9.000E+00
      -1    -1     0     0     0   501  0.000000000E+00  0.000000000E+00 -1.818441134E+00  1.818441134E+00  0.000000000E+00  0.00000E+00  9.000E+00
      23     2     1     2     0     0 -5.743438058E+00  7.072116657E+00  1.191234777E+03  1.194674155E+03  9.012790562E+01  0.00000E+00  9.000E+00
      13     1     3     3     0     0 -1.017342706E+01 -1.436569259E+00  1.382402232E+01  1.722431729E+01  1.056583668E-01  0.00000E+00  9.000E+00
     -13     1     3     3     0     0  4.429988997E+00  8.508685915E+00  1.177410755E+03  1.177449837E+03  1.056583668E-01  0.00000E+00  9.000E+00
      21     1     1     2   511   501  5.743438058E+00 -7.072116657E+00  2.100275104E+02  2.102250152E+02  0.000000000E+00  0.00000E+00  9.000E+00
#pdf   1 -1 0.18260091E+00 0.26322608E-03 0.90127906E+02 0.25197702E+00 0.24061496E+01
#rwgt            1           6   1343.8426264763332         54217137    18376665           0
</event>
<event>
      6  10013  3.31628E+03  3.34298E+00 -1.00000E+00  2.83168E-01
       2    -1     0     0   511     0  0.000000000E+00  0.000000000E+00  8.352345441E+02  8.352345441E+02  0.000000000E+00  0.00000E+00  9.000E+00
      -2    -1     0     0     0   501  0.000000000E+00  0.000000000E+00 -5.387148366E-01  5.387148366E-01  0.000000000E+00  0.00000E+00  9.000E+00
      23     2     1     2     0     0 -2.447834374E+00 -2.276763157E+00  6.590270292E+02  6.600726532E+02  3.698792683E+01  0.00000E+00  9.000E+00
      13     1     3     3     0     0 -9.398706056E+00 -9.303732200E+00  6.052670979E+02  6.054115675E+02  1.056583668E-01  0.00000E+00  9.000E+00
     -13     1     3     3     0     0  6.950871682E+00  7.026969042E+00  5.375993133E+01  5.466108572E+01  1.056583668E-01  0.00000E+00  9.000E+00
      21     1     1     2   511   501  2.447834374E+00  2.276763157E+00  1.756688001E+02  1.757006057E+02  3.814697266E-06  0.00000E+00  9.000E+00
#pdf   2 -2 0.10105730E+00 0.80106102E-04 0.36987927E+02 0.61633367E+00 0.28850383E+01
#rwgt            1           7   2554.7041598240812         54217137    18376781           0
</event>
<event>
      6  10013  3.31628E+03  3.47172E+01 -1.00000E+00  1.48728E-01
      21    -1     0     0   501   511  0.000000000E+00  0.000000000E+00  7.750954982E+00  7.750954982E+00  0.000000000E+00  0.00000E+00  9.000E+00
      -1    -1     0     0     0   501  0.000000000E+00  0.000000000E+00 -7.768158567E+02  7.768158567E+02  0.000000000E+00  0.00000E+00  9.000E+00
      23     2     1     2     0     0 -3.387471322E+01 -7.601839948E+00 -7.071070415E+02  7.135452614E+02  8.911334192E+01  0.00000E+00  9.000E+00
      13     1     3     3     0     0  1.550526944E+01  2.213298016E+01 -9.616204726E+01  9.988709971E+01  1.056583668E-01  0.00000E+00  9.000E+00
     -13     1     3     3     0     0 -4.937998266E+01 -2.973482011E+01 -6.109449943E+02  6.136581617E+02  1.056583668E-01  0.00000E+00  9.000E+00
      -1     1     1     2     0   511  3.387471322E+01  7.601839948E+00 -6.195786016E+01  7.102155026E+01  0.000000000E+00  0.00000E+00  9.000E+00
#pdf   1 -1 0.46146459E-03 0.10182640E+00 0.89113342E+02 0.19800208E+01 0.11240687E+00
#rwgt            1           6   298.57495767865959         54217137    18376896           0
</event>
<event>
      6  10013  3.31628E+03  5.84322E+00 -1.00000E+00  2.27193E-01
       2    -1     0     0   501     0  0.000000000E+00  0.000000000E+00  5.117391096E+02  5.117391096E+02  0.000000000E+00  0.00000E+00  9.000E+00
      -2    -1     0     0     0   511  0.000000000E+00  0.000000000E+00 -1.171796852E+00  1.171796852E+00  0.000000000E+00  0.00000E+00  9.000E+00
      23     2     1     2     0     0  4.172794577E+00 -4.090348904E+00  4.798229365E+02  4.816161810E+02  4.110902899E+01  0.00000E+00  9.000E+00
      13     1     3     3     0     0 -7.998840958E+00  6.044077954E+00  3.246464399E+01  3.397758979E+01  1.056583668E-01  0.00000E+00  9.000E+00
     -13     1     3     3     0     0  1.217163554E+01 -1.013442686E+01  4.473582925E+02  4.476385913E+02  1.056583668E-01  0.00000E+00  9.000E+00
      21     1     1     2   501   511 -4.172794577E+00  4.090348904E+00  3.074437622E+01  3.129472540E+01  6.743495762E-07  0.00000E+00  9.000E+00
#pdf   2 -2 0.73220890E-01 0.13656919E-03 0.41109029E+02 0.62563213E+00 0.24996779E+01
#rwgt            1           7   3811.3947730302175         54217137    18376931           0
</event>
<event>
      6  10013  3.31628E+03  7.02586E+00 -1.00000E+00  2.15256E-01
      21    -1     0     0   511   501  0.000000000E+00  0.000000000E+00  1.194957114E+01  1.194957114E+01  0.000000000E+00  0.00000E+00  9.000E+00
       2    -1     0     0   501     0  0.000000000E+00  0.000000000E+00 -2.051907908E+02  2.051907908E+02  0.000000000E+00  0.00000E+00  9.000E+00
      23     2     1     2     0     0  6.253181790E+00  3.203181310E+00 -1.886450889E+02  2.087447041E+02  8.909556248E+01  0.00000E+00  9.000E+00
      13     1     3     3     0     0 -6.863885100E+00 -1.105566093E+01 -1.889202629E+02  1.893679420E+02  1.056583668E-01  0.00000E+00  9.000E+00
     -13     1     3     3     0     0  1.311706689E+01  1.425884224E+01  2.751739473E-01  1.937676212E+01  1.056583668E-01  0.00000E+00  9.000E+00
       2     1     1     2   511     0 -6.253181790E+00 -3.203181310E+00 -4.596130728E+00  8.395657846E+00  0.000000000E+00  0.00000E+00  9.000E+00
#pdf  -2  2 0.15413393E-02 0.30473842E-01 0.89095562E+02 0.12134041E+01 0.65169029E+00
#rwgt            1           4   723.37009043899923         54217137    18377030           0
</event>
<event>
      6  10013  3.31628E+03  1.55620E+01 -1.00000E+00  1.75845E-01
      21    -1     0     0   501   511  0.000000000E+00  0.000000000E+00  2.365467036E+01  2.365467036E+01  0.000000000E+00  0.00000E+00  9.000E+00
      -3    -1     0     0     0   501  0.000000000E+00  0.000000000E+00 -1.421282081E+02  1.421282081E+02  0.000000000E+00  0.00000E+00  9.000E+00
      23     2     1     2     0     0  1.263934502E+01 -9.078669989E+00 -1.194297107E+02  1.501915489E+02  8.973221414E+01  0.00000E+00  9.000E+00
      13     1     3     3     0     0  1.739580397E+01 -4.546672886E+01 -9.298787270E+01  1.049599593E+02  1.056583668E-01  0.00000E+00  9.000E+00
     -13     1     3     3     0     0 -4.756458955E+00  3.638805887E+01 -2.644183803E+01  4.523158954E+01  1.056583668E-01  0.00000E+00  9.000E+00
      -3     1     1     2     0   511 -1.263934502E+01  9.078669989E+00  9.561730168E-01  1.559132958E+01  0.000000000E+00  0.00000E+00  9.000E+00
#pdf   3 -3 0.23314929E-02 0.20435062E-01 0.89732214E+02 0.98755008E+00 0.31527684E+00
#rwgt            1           8   341.51314397494514         54217137    18377162           0
</event>
<event>
      6  10013  3.31628E+03  9.21069E+00 -1.00000E+00  1.99917E-01
      -2    -1     0     0     0   511  0.000000000E+00  0.000000000E+00  2.170049329E+00  2.170049329E+00  0.000000000E+00  0.00000E+00  9.000E+00
       2    -1     0     0   501     0  0.000000000E+00  0.000000000E+00 -1.557364921E+03  1.557364921E+03  0.000000000E+00  0.00000E+00  9.000E+00
      23     2     1     2     0     0  2.239974854E+00  8.934163047E+00 -1.530524249E+03  1.533201031E+03  9.008932683E+01  0.00000E+00  9.000E+00
      13     1     3     3     0     0  1.178090286E+01 -4.119351771E-01 -1.497930084E+03  1.497976471E+03  1.056583668E-01  0.00000E+00  9.000E+00
     -13     1     3     3     0     0 -9.540928004E+00  9.346098225E+00 -3.259416491E+01  3.522455974E+01  1.056583668E-01  0.00000E+00  9.000E+00
      21     1     1     2   501   511 -2.239974854E+00 -8.934163047E+00 -2.467062264E+01  2.633393967E+01  4.768371582E-07  0.00000E+00  9.000E+00
#pdf  -2  2 0.20483848E-03 0.23444902E+00 0.90089327E+02 0.26306174E+01 0.44180103E+00
#rwgt            1           4   1664.5116901758904         54217137    18377217           0
</event>
<event>
      6  10013  3.31628E+03  4.01480E+00 -1.00000E+00  2.62985E-01
      21    -1     0     0   511   501  0.000000000E+00  0.000000000E+00  2.170240104E+01  2.170240104E+01  0.000000000E+00  0.00000E+00  9.000E+00
       2    -1     0     0   501     0  0.000000000E+00  0.000000000E+00 -2.081721733E+01  2.081721733E+01  0.000000000E+00  0.00000E+00  9.000E+00
      23     2     1     2     0     0  1.213396164E+00  3.827044170E+00 -9.170741988E+00  3.169186519E+01  3.006914055E+01  0.00000E+00  9.000E+00
      13     1     3     3     0     0 -5.884695034E+00 -1.926910183E+00  9.248475761E+00  1.113050251E+01  1.056583668E-01  0.00000E+00  9.000E+00
     -13     1     3     3     0     0  7.098091198E+00  5.753954353E+00 -1.841921775E+01  2.056136269E+01  1.056583668E-01  0.00000E+00  9.000E+00
       2     1     1     2   511     0 -1.213396164E+00 -3.827044170E+00  1.005592570E+01  1.082775318E+01  0.000000000E+00  0.00000E+00  9.000E+00
#pdf  -2  2 0.17171556E-02 0.31156286E-02 0.30069141E+02 0.96677922E+00 0.89722850E+00
#rwgt            1           4   1021.3316856542104         54217137    18377330           0
</event>
<event>
      6  10013  3.31628E+03  4.27083E+01 -1.00000E+00  1.43067E-01
       2    -1     0     0   501     0  0.000000000E+00  0.000000000E+00  5.803975666E+00  5.803975666E+00  0.000000000E+00  0.00000E+00  9.000E+00
      -2    -1     0     0     0   511  0.000000000E+00  0.000000000E+00 -1.038872032E+03  1.038872032E+03  0.000000000E+00  0.00000E+00  9.000E+00
      23     2     1     2     0     0 -3.655084048E+01 -2.209147569E+01 -5.001423004E+02  5.100416854E+02  9.042235858E+01  0.00000E+00  9.000E+00
      13     1     3     3     0     0 -3.032567024E+00  2.753485217E+01 -6.306397628E+01  6.887990139E+01  1.056583668E-01  0.00000E+00  9.000E+00
     -13     1     3     3     0     0 -3.351827346E+01 -4.962632786E+01 -4.370783242E+02  4.411617840E+02  1.056583668E-01  0.00000E+00  9.000E+00
      21     1     1     2   501   511  3.655084048E+01  2.209147569E+01 -5.329257562E+02  5.346343226E+02  7.629394531E-06  0.00000E+00  9.000E+00
#pdf   2 -2 0.68855137E-03 0.70263311E-01 0.90422359E+02 0.17346158E+01 0.13064675E+00
#rwgt            1           7   330.93191402456989         54217137    18377480           0
</event>
<event>
      6  10013  3.31628E+03  6.16723E+00 -1.00000E+00  2.23556E-01
       1    -1     0     0   501     0  0.000000000E+00  0.000000000E+00  6.046560444E+01  6.046560444E+01  0.000000000E+00  0.00000E+00  9.000E+00
      -1    -1     0     0     0   511  0.000000000E+00  0.000000000E+00 -5.308137303E+01  5.308137303E+01  0.000000000E+00  0.00000E+00  9.000E+00
      23     2     1     2     0     0  5.682946850E+00 -2.395581566E+00  2.433917419E+01  9.550522644E+01  9.214563571E+01  0.00000E+00  9.000E+00
      13     1     3     3     0     0 -2.286439847E+01  1.845099422E+01  4.560704000E+01  5.425157294E+01  1.056583668E-01  0.00000E+00  9.000E+00
     -13     1     3     3     0     0  2.854734532E+01 -2.084657578E+01 -2.126786581E+01  4.125365349E+01  1.056583668E-01  0.00000E+00  9.000E+00
      21     1     1     2   501   511 -5.682946850E+00  2.395581566E+00 -1.695494278E+01  1.804175104E+01  2.384185791E-07  0.00000E+00  9.000E+00
#pdf   1 -1 0.91982213E-02 0.54620916E-02 0.92145636E+02 0.69362149E+00 0.71813447E+00
#rwgt            1           6   750.10628160159160         54217137    18377542           0
</event>
<event>
      6  10013  3.31628E+03  2.61658E+00 -1.00000E+00  3.15976E-01
       4    -1     0     0   501     0  0.000000000E+00  0.000000000E+00  1.533706328E+01  1.533706328E+01  0.000000000E+00  0.00000E+00  9.000E+00
      21    -1     0     0   511   501  0.000000000E+00  0.000000000E+00 -1.555900091E+02  1.555900091E+02  0.000000000E+00  0.00000E+00  9.000E+00
      23     2     1     2     0     0  1.228460094E+00 -2.310280254E+00 -1.390396589E+02  1.680428785E+02  9.433735083E+01  0.00000E+00  9.000E+00
      13     1     3     3     0     0 -2.497051661E+01  3.696177042E+01 -4.823042535E+01  6.569538999E+01  1.056583668E-01  0.00000E+00  9.000E+00
     -13     1     3     3     0     0  2.619897671E+01 -3.927205067E+01 -9.080923352E+01  1.023474885E+02  1.056583668E-01  0.00000E+00  9.000E+00
       4     1     1     2   511     0 -1.228460094E+00  2.310280254E+00 -1.213286910E+00  2.884193853E+00  0.000000000E+00  0.00000E+00  9.000E+00
#pdf   4 -4 0.22301592E-02 0.23612653E-01 0.94337351E+02 0.81790971E+00 0.18252251E+00
#rwgt            1           9   193.55534342331350         54217137    18377684           0
</event>
<event>
      6  10013  3.31628E+03  2.38099E+00 -1.00000E+00  3.30893E-01
      21    -1     0     0   501   511  0.000000000E+00  0.000000000E+00  2.276410217E+01  2.276410217E+01  0.000000000E+00  0.00000E+00  9.000E+00
      -2    -1     0     0     0   501  0.000000000E+00  0.000000000E+00 -3.111814466E+01  3.111814466E+01  0.000000000E+00  0.00000E+00  9.000E+00
      23     2     1     2     0     0  1.514830397E+00  1.836951718E+00 -2.553857850E+01  3.653354716E+01  2.601561018E+01  0.00000E+00  9.000E+00
      13     1     3     3     0     0  7.831776994E+00 -9.334463993E+00 -7.210813755E+00  1.415895291E+01  1.056583668E-01  0.00000E+00  9.000E+00
     -13     1     3     3     0     0 -6.316946597E+00  1.117141571E+01 -1.832776475E+01  2.237459424E+01  1.056583668E-01  0.00000E+00  9.000E+00
      -2     1     1     2     0   511 -1.514830397E+00 -1.836951718E+00  1.718453601E+01  1.734869968E+01  0.000000000E+00  0.00000E+00  9.000E+00
#pdf   2 -2 0.84224677E-03 0.47549064E-02 0.26015610E+02 0.12650577E+01 0.63900466E+00
#rwgt            1           7   435.82646015147378         54217137    18378035           0
</event>
<event>
      6  10013  3.31628E+03  1.42412E+01 -1.00000E+00  1.79485E-01
      -2    -1     0     0     0   501  0.000000000E+00  0.000000000E+00  3.040625518E-01  3.040625518E-01  0.000000000E+00  0.00000E+00  9.000E+00
       2    -1     0     0   511     0  0.000000000E+00  0.000000000E+00 -2.443171731E+03  2.443171731E+03  0.000000000E+00  0.00000E+00  9.000E+00
      23     2     1     2     0     0 -1.417561445E+01  1.364929361E+00 -6.257524564E+02  6.263047766E+02  2.210713448E+01  0.00000E+00  9.000E+00
      13     1     3     3     0     0 -8.117406609E+00 -1.026397187E+01 -2.855568312E+02  2.858565312E+02  1.056583668E-01  0.00000E+00  9.000E+00
     -13     1     3     3     0     0 -6.058207843E+00  1.162890123E+01 -3.401956252E+02  3.404482454E+02  1.056583668E-01  0.00000E+00  9.000E+00
      21     1     1     2   511   501  1.417561445E+01 -1.364929361E+00 -1.817115212E+03  1.817171017E+03  3.051757812E-05  0.00000E+00  9.000E+00
#pdf  -2  2 0.35716794E-04 0.80966569E-01 0.22107134E+02 0.31098890E+01 0.62861821E+00
#rwgt            1           4   2798.4562560517820         54217137    18378142           0
</event>
<event>
      5  10013  3.31628E+03  8.94427E-01 -1.00000E+00  7.39159E-01
       2    -1     0     0   501     0  0.000000000E+00  0.000000000E+00  1.081160277E+03  1.081160277E+03  0.000000000E+00  0.00000E+00  9.000E+00
      -2    -1     0     0     0   501  0.000000000E+00  0.000000000E+00 -9.853807852E-02  9.853807852E-02  0.000000000E+00  0.00000E+00  9.000E+00
      23     2     1     2     0     0  0.000000000E+00  0.000000000E+00  1.081061739E+03  1.081258815E+03  2.064320287E+01  0.00000E+00  9.000E+00
      13     1     3     3     0     0 -8.691217375E+00  1.593398553E+00  2.611611566E+02  2.613106142E+02  1.056583668E-01  0.00000E+00  9.000E+00
     -13     1     3     3     0     0  8.691217375E+00 -1.593398553E+00  8.199005819E+02  8.199482006E+02  1.056583668E-01  0.00000E+00  9.000E+00
#pdf   2 -2 0.16633235E+00 0.15159704E-04 0.20643203E+02 0.58447647E+00 0.38849529E+01
#rwgt            1           7   3189.9092898165472         54217137    18378205           0
</event>
<event>
      6  10013  3.31628E+03  3.19671E+01 -1.00000E+00  1.51114E-01
      21    -1     0     0   511   501  0.000000000E+00  0.000000000E+00  1.749698232E+01  1.749698232E+01  0.000000000E+00  0.00000E+00  9.000E+00
       2    -1     0     0   501     0  0.000000000E+00  0.000000000E+00 -1.023547612E+03  1.023547612E+03  0.000000000E+00  0.00000E+00  9.000E+00
      23     2     1     2     0     0  2.938202817E+01 -1.259331791E+01 -1.004365631E+03  1.009033121E+03  9.151842411E+01  0.00000E+00  9.000E+00
      13     1     3     3     0     0 -6.693596995E+00 -4.355016000E+01 -6.502291559E+02  6.517203289E+02  1.056583668E-01  0.00000E+00  9.000E+00
     -13     1     3     3     0     0  3.607562516E+01  3.095684209E+01 -3.541364756E+02  3.573127920E+02  1.056583668E-01  0.00000E+00  9.000E+00
       2     1     1     2   511     0 -2.938202817E+01  1.259331791E+01 -1.684998497E+00  3.201147381E+01  0.000000000E+00  0.00000E+00  9.000E+00
#pdf  -2  2 0.33895493E-03 0.14621382E+00 0.91518424E+02 0.21939293E+01 0.55852954E+00
#rwgt            1           4   1647.1507406681017         54217137    18378385           0
</event>
<event>
      6  10013  3.31628E+03  1.29597E+00 -1.00000E+00  5.00762E-01
      -2    -1     0     0     0   511  0.000000000E+00  0.000000000E+00  1.747038827E+00  1.747038827E+00  0.000000000E+00  0.00000E+00  9.000E+00
       2    -1     0     0   501     0  0.000000000E+00  0.000000000E+00 -1.723765371E+03  1.723765371E+03  0.000000000E+00  0.00000E+00  9.000E+00
      23     2     1     2     0     0  6.617439828E-03  1.295957521E+00 -1.721604605E+03  1.724151998E+03  9.368039262E+01  0.00000E+00  9.000E+00
      13     1     3     3     0     0  4.065392809E+01  1.286017562E+01 -1.228508491E+03  1.229248245E+03  1.056583668E-01  0.00000E+00  9.000E+00
     -13     1     3     3     0     0 -4.064731065E+01 -1.156421809E+01 -4.930961147E+02  4.949037527E+02  1.056583668E-01  0.00000E+00  9.000E+00
      21     1     1     2   501   511 -6.617439828E-03 -1.295957521E+00 -4.137266113E-01  1.360411480E+00  1.501250392E-07  0.00000E+00  9.000E+00
#pdf  -2  2 0.19593454E-03 0.26503284E+00 0.93680393E+02 0.26959483E+01 0.39493322E+00
#rwgt            1           4   1754.8161122759982         54217137    18378455           0
</event>
<event>
      6  10013  3.31628E+03  2.61743E+00 -1.00000E+00  3.15927E-01
       2    -1     0     0   511     0  0.000000000E+00  0.000000000E+00  9.111137256E+02  9.111137256E+02  0.000000000E+00  0.00000E+00  9.000E+00
      -2    -1     0     0     0   501  0.000000000E+00  0.000000000E+00 -2.478208928E+00  2.478208928E+00  0.000000000E+00  0.00000E+00  9.000E+00
      23     2     1     2     0     0 -2.559429981E+00 -5.479801315E-01  8.300802996E+02  8.349931235E+02  9.040664556E+01  0.00000E+00  9.000E+00
      13     1     3     3     0     0 -4.160094796E+01 -1.655604856E+00  6.141002661E+02  6.155099738E+02  1.056583668E-01  0.00000E+00  9.000E+00
     -13     1     3     3     0     0  3.904151798E+01  1.107624725E+00  2.159800335E+02  2.194831497E+02  1.056583668E-01  0.00000E+00  9.000E+00
      21     1     1     2   511   501  2.559429981E+00  5.479801315E-01  7.855521703E+01  7.859881098E+01  1.651812370E-06  0.00000E+00  9.000E+00
#pdf   2 -2 0.12802892E+00 0.37775125E-03 0.90406646E+02 0.57795385E+00 0.21021730E+01
#rwgt            1           7   2231.1440349006257         54217137    18378921           0
</event>
<event>
      6  10013 -3.31628E+03  9.51095E+00 -1.00000E+00  1.98249E-01
      -4    -1     0     0     0   501  0.000000000E+00  0.000000000E+00  1.922258553E+01  1.922258553E+01  0.000000000E+00  0.00000E+00  9.000E+00
       4    -1     0     0   511     0  0.000000000E+00  0.000000000E+00 -3.555393532E+01  3.555393532E+01  0.000000000E+00  0.00000E+00  9.000E+00
      23     2     1     2     0     0  9.411547576E+00 -1.371486617E+00  8.507448049E+00  2.817907584E+01  2.512420027E+01  0.00000E+00  9.000E+00
      13     1     3     3     0     0  1.914618005E+00  1.391088209E-02 -8.937382702E+00  9.140783822E+00  1.056583668E-01  0.00000E+00  9.000E+00
     -13     1     3     3     0     0  7.496929571E+00 -1.385397500E+00  1.744483075E+01  1.903829202E+01  1.056583668E-01  0.00000E+00  9.000E+00
      21     1     1     2   511   501 -9.411547576E+00  1.371486617E+00 -2.483879783E+01  2.659744501E+01  3.371747881E-07  0.00000E+00  9.000E+00
#pdf  -4  4 0.26392591E-02 0.14151933E-02 0.25124200E+02 0.56587456E+00 0.73818331E+00
#rwgt            1           2  -2184.2212661752906         54217137    18379108           0
</event>
<event>
      6  10013  3.31628E+03  3.37786E+00 -1.00000E+00  2.81937E-01
       2    -1     0     0   501     0  0.000000000E+00  0.000000000E+00  3.111048841E+02  3.111048841E+02  0.000000000E+00  0.00000E+00  9.000E+00
      21    -1     0     0   511   501  0.000000000E+00  0.000000000E+00 -1.475226740E+01  1.475226740E+01  0.000000000E+00  0.00000E+00  9.000E+00
      23     2     1     2     0     0  2.486570796E+00 -2.286237116E+00  3.038880189E+02  3.175992947E+02  9.224952051E+01  0.00000E+00  9.000E+00
      13     1     3     3     0     0  4.725357528E+00  1.809334910E+01  2.944250874E+02  2.950183749E+02  1.056583668E-01  0.00000E+00  9.000E+00
     -13     1     3     3     0     0 -2.238786732E+00 -2.037958621E+01  9.462931477E+00  2.258091974E+01  1.056583668E-01  0.00000E+00  9.000E+00
       2     1     1     2   511     0 -2.486570796E+00  2.286237116E+00 -7.535402150E+00  8.257856867E+00  0.000000000E+00  0.00000E+00  9.000E+00
#pdf   2 -2 0.47774700E-01 0.10540072E-02 0.92249521E+02 0.63454883E+00 0.14215401E+01
#rwgt            1           7   1087.9941457155410         54217137    18379185           0
</event>
<event>
      6  10013  3.31628E+03  5.23197E+01 -1.00000E+00  1.37933E-01
      21    -1     0     0   511   501  0.000000000E+00  0.000000000E+00  2.563905181E+01  2.563905181E+01  0.000000000E+00  0.00000E+00  9.000E+00
       3    -1     0     0   501     0  0.000000000E+00  0.000000000E+00 -2.531178259E+02  2.531178259E+02  0.000000000E+00  0.00000E+00  9.000E+00
      23     2     1     2     0     0 -5.097351967E+01  1.179215670E+01 -1.133152898E+02  1.531756060E+02  8.879784173E+01  0.00000E+00  9.000E+00
      13     1     3     3     0     0 -1.520067922E+00  3.994059803E+01 -7.369925143E+01  8.384004296E+01  1.056583668E-01  0.00000E+00  9.000E+00
     -13     1     3     3     0     0 -4.945345175E+01 -2.814844133E+01 -3.961603836E+01  6.933556301E+01  1.056583668E-01  0.00000E+00  9.000E+00
       3     1     1     2   511     0  5.097351967E+01 -1.179215670E+01 -1.141634843E+02  1.255812717E+02  0.000000000E+00  0.00000E+00  9.000E+00
#pdf  -3  3 0.26417289E-02 0.17661593E-01 0.88797842E+02 0.93374627E+00 0.34731529E+00
#rwgt            1           3   436.29608755191191         54217137    18379300           0
</event>
<event>
      6  10013  3.31628E+03  1.75215E+01 -1.00000E+00  1.71210E-01
      -2    -1     0     0     0   501  0.000000000E+00  0.000000000E+00  1.688962985E+02  1.688962985E+02  0.000000000E+00  0.00000E+00  9.000E+00
      21    -1     0     0   501   511  0.000000000E+00  0.000000000E+00 -4.188646320E+00  4.188646320E+00  0.000000000E+00  0.00000E+00  9.000E+00
      23     2     1     2     0     0  1.643424954E+01  6.075916651E+00  1.400655303E+02  1.428486174E+02  2.191742261E+01  0.00000E+00  9.000E+00
      13     1     3     3     0     0  6.532749153E-01  4.968123230E+00  5.847811545E+00  7.701758247E+00  1.056583668E-01  0.00000E+00  9.000E+00
     -13     1     3     3     0     0  1.578097463E+01  1.107793420E+00  1.342177187E+02  1.351468592E+02  1.056583668E-01  0.00000E+00  9.000E+00
      -2     1     1     2     0   511 -1.643424954E+01 -6.075916651E+00  2.464212191E+01  3.023632738E+01  0.000000000E+00  0.00000E+00  9.000E+00
#pdf  -2  2 0.16998479E-01 0.16721768E-03 0.21917423E+02 0.35524430E+00 0.19660218E+01
#rwgt            1           4   618.16191629588798         54217137    18379377           0
</event>
<event>
      5  10013  3.31628E+03  8.94427E-01 -1.00000E+00  7.46920E-01
       2    -1     0     0   501     0  0.000000000E+00  0.000000000E+00  1.357773606E+03  1.357773606E+03  0.000000000E+00  0.00000E+00  9.000E+00
      -2    -1     0     0     0   501  0.000000000E+00  0.000000000E+00 -2.932810167E-01  2.932810167E-01  0.000000000E+00  0.00000E+00  9.000E+00
      23     2     1     2     0     0  0.000000000E+00  0.000000000E+00  1.357480325E+03  1.358066887E+03  3.991036073E+01  0.00000E+00  9.000E+00
      13     1     3     3     0     0  1.223538674E+01  8.501243875E+00  2.270237758E+02  2.275121574E+02  1.056583668E-01  0.00000E+00  9.000E+00
     -13     1     3     3     0     0 -1.223538674E+01 -8.501243875E+00  1.130456549E+03  1.130554729E+03  1.056583668E-01  0.00000E+00  9.000E+00
#pdf   2 -2 0.20888825E+00 0.45120156E-04 0.39910361E+02 0.50908879E+00 0.35471468E+01
#rwgt            1           7   3735.6510687160030         54217137    18379434           0
</event>
<event>
      6  10013  3.31628E+03  3.60897E+01 -1.00000E+00  1.47634E-01
      21    -1     0     0   511   501  0.000000000E+00  0.000000000E+00  1.611829043E+00  1.611829043E+00  0.000000000E+00  0.00000E+00  9.000E+00
       2    -1     0     0   501     0  0.000000000E+00  0.000000000E+00 -1.851554264E+03  1.851554264E+03  0.000000000E+00  0.00000E+00  9.000E+00
      23     2     1     2     0     0  3.607644025E+01 -9.788003591E-01 -1.592994901E+03  1.593696437E+03  3.054682817E+01  0.00000E+00  9.000E+00
      13     1     3     3     0     0  9.605665291E+00 -1.446814410E+01 -6.610571641E+02  6.612852496E+02  1.056583668E-01  0.00000E+00  9.000E+00
     -13     1     3     3     0     0  2.647077496E+01  1.348934374E+01 -9.319377372E+02  9.324111869E+02  1.056583668E-01  0.00000E+00  9.000E+00
       2     1     1     2   511     0 -3.607644025E+01  9.788003591E-01 -2.569475341E+02  2.594696569E+02  0.000000000E+00  0.00000E+00  9.000E+00
#pdf  -2  2 0.34864025E-04 0.15836821E+00 0.30546828E+02 0.35194335E+01 0.57827244E+00
#rwgt            1           4   3058.1781081670579         54217137    18379653           0
</event>
<event>
      6  10013  3.31628E+03  1.32486E+01 -1.00000E+00  1.82568E-01
       2    -1     0     0   501     0  0.000000000E+00  0.000000000E+00  5.905037612E+02  5.905037612E+02  0.000000000E+00  0.00000E+00  9.000E+00
      21    -1     0     0   511   501  0.000000000E+00  0.000000000E+00 -5.076629581E+00  5.076629581E+00  0.000000000E+00  0.00000E+00  9.000E+00
      23     2     1     2     0     0  1.051261749E+01  8.062840347E+00  5.461417920E+02  5.541212249E+02  9.275748203E+01  0.00000E+00  9.000E+00
      13     1     3     3     0     0  5.068132935E+01  1.187275906E+01  2.611443950E+02  2.662817413E+02  1.056583668E-01  0.00000E+00  9.000E+00
     -13     1     3     3     0     0 -4.016871186E+01 -3.809918708E+00  2.849973970E+02  2.878394837E+02  1.056583668E-01  0.00000E+00  9.000E+00
       2     1     1     2   511     0 -1.051261749E+01 -8.062840347E+00  3.928533968E+01  4.145916587E+01  0.000000000E+00  0.00000E+00  9.000E+00
#pdf   2 -2 0.83785302E-01 0.60763580E-03 0.92757482E+02 0.61349098E+00 0.17644387E+01
#rwgt            1           7   1245.7551504298822         54217137    18379769           0
</event>
<event>
      6  10013  3.31628E+03  1.43633E+01 -1.00000E+00  1.79128E-01
      -1    -1     0     0     0   501  0.000000000E+00  0.000000000E+00  5.834460266E+00  5.834460266E+00  0.000000000E+00  0.00000E+00  9.000E+00
       1    -1     0     0   511     0  0.000000000E+00  0.000000000E+00 -7.889742521E+02  7.889742521E+02  0.000000000E+00  0.00000E+00  9.000E+00
      23     2     1     2     0     0  1.403896011E+01 -3.034950646E+00 -3.745079219E+02  3.859244886E+02  9.206097979E+01  0.00000E+00  9.000E+00
      13     1     3     3     0     0 -9.780922436E+00  1.106973022E+00 -3.542363472E+02  3.543730981E+02  1.056583668E-01  0.00000E+00  9.000E+00
     -13     1     3     3     0     0  2.381988255E+01 -4.141923668E+00 -2.027157473E+01  3.155139049E+01  1.056583668E-01  0.00000E+00  9.000E+00
      21     1     1     2   511   501 -1.403896011E+01  3.034950646E+00 -4.086318700E+02  4.088842238E+02  1.206313194E-05  0.00000E+00  9.000E+00
#pdf  -1  1 0.86770018E-03 0.57795602E-01 0.92060980E+02 0.15419185E+01 0.42880640E+00
#rwgt            1           5   1002.3105850601607         54217137    18379834           0
</event>
<event>
      6  10013  3.31628E+03  1.13715E+01 -1.00000E+00  1.89464E-01
       1    -1     0     0   501     0  0.000000000E+00  0.000000000E+00  3.486072471E+02  3.486072471E+02  0.000000000E+00  0.00000E+00  9.000E+00
      21    -1     0     0   511   501  0.000000000E+00  0.000000000E+00 -7.731282297E+00  7.731282297E+00  0.000000000E+00  0.00000E+00  9.000E+00
      23     2     1     2     0     0 -9.748134004E+00 -5.855410815E+00  3.198977459E+02  3.324764754E+02  8.987061206E+01  0.00000E+00  9.000E+00
      13     1     3     3     0     0 -2.304619439E+01  1.089234701E+01  2.159590453E+01  3.340904901E+01  1.056583668E-01  0.00000E+00  9.000E+00
     -13     1     3     3     0     0  1.329806039E+01 -1.674775782E+01  2.983018414E+02  2.990674264E+02  1.056583668E-01  0.00000E+00  9.000E+00
       1     1     1     2   511     0  9.748134004E+00  5.855410815E+00  2.097821886E+01  2.386205396E+01  0.000000000E+00  0.00000E+00  9.000E+00
#pdf   1 -1 0.49785670E-01 0.95994056E-03 0.89870612E+02 0.44512092E+00 0.14765435E+01
#rwgt            1           6   873.63063692042942         54217137    18379891           0
</event>
<event>
      6  10013 -3.31628E+03  4.73386E+01 -1.00000E+00  1.40415E-01
      21    -1     0     0   501   511  0.000000000E+00  0.000000000E+00  6.461124007E+02  6.461124007E+02  0.000000000E+00  0.00000E+00  9.000E+00
      -5    -1     0     0     0   501  0.000000000E+00  0.000000000E+00 -9.032897886E+00  9.032897886E+00  0.000000000E+00  0.00000E+00  9.000E+00
      23     2     1     2     0     0  3.082843014E+01  3.592421353E+01  3.636424929E+02  3.776408129E+02  9.019855681E+01  0.00000E+00  9.000E+00
      13     1     3     3     0     0 -2.959585415E+01  1.536079315E+01  1.839796623E+02  1.869769928E+02  1.056583668E-01  0.00000E+00  9.000E+00
     -13     1     3     3     0     0  6.042428430E+01  2.056342038E+01  1.796628307E+02  1.906638200E+02  1.056583668E-01  0.00000E+00  9.000E+00
      -5     1     1     2     0   511 -3.082843014E+01 -3.592421353E+01  2.734370099E+02  2.775044857E+02  0.000000000E+00  0.00000E+00  9.000E+00
#pdf   5 -5 0.50490583E-01 0.95345914E-03 0.90198557E+02 0.47546180E-01 0.86970219E+00
#rwgt            1          10  -357.87963516681293         54217137    18380040           0
</event>
<event>
      6  10013  3.31628E+03  1.06669E+01 -1.00000E+00  1.92514E-01
      -2    -1     0     0     0   501  0.000000000E+00  0.000000000E+00  4.161556004E+00  4.161556004E+00  0.000000000E+00  0.00000E+00  9.000E+00
       2    -1     0     0   511     0  0.000000000E+00  0.000000000E+00 -6.435682285E+02  6.435682285E+02  0.000000000E+00  0.00000E+00  9.000E+00
      23     2     1     2     0     0 -9.000507710E+00 -5.724912891E+00 -5.647149602E+02  5.722802275E+02  9.212973865E+01  0.00000E+00  9.000E+00
      13     1     3     3     0     0 -1.720482238E+01  4.782852354E+00 -5.561449241E+02  5.564315496E+02  1.056583668E-01  0.00000E+00  9.000E+00
     -13     1     3     3     0     0  8.204314672E+00 -1.050776524E+01 -8.570036104E+00  1.584867793E+01  1.056583668E-01  0.00000E+00  9.000E+00
      21     1     1     2   511   501  9.000507710E+00  5.724912891E+00 -7.469171221E+01  7.544955692E+01  9.536743164E-07  0.00000E+00  9.000E+00
#pdf  -2  2 0.57808182E-03 0.86880770E-01 0.92129739E+02 0.17962793E+01 0.61155266E+00
#rwgt            1           4   2277.9656509716547         54217137    18380212           0
</event>
<event>
      6  10013  3.31628E+03  9.86015E+00 -1.00000E+00  1.96408E-01
      21    -1     0     0   511   501  0.000000000E+00  0.000000000E+00  1.239284835E+01  1.239284835E+01  0.000000000E+00  0.00000E+00  9.000E+00
       1    -1     0     0   501     0  0.000000000E+00  0.000000000E+00 -2.573571275E+02  2.573571275E+02  0.000000000E+00  0.00000E+00  9.000E+00
      23     2     1     2     0     0 -6.745102507E+00 -7.192086276E+00 -2.417184525E+02  2.593693254E+02  9.352761174E+01  0.00000E+00  9.000E+00
      13     1     3     3     0     0 -9.835300975E+00 -4.071460440E+01 -5.241177728E+01  6.709260554E+01  1.056583668E-01  0.00000E+00  9.000E+00
     -13     1     3     3     0     0  3.090198467E+00  3.352251812E+01 -1.893066752E+02  1.922767198E+02  1.056583668E-01  0.00000E+00  9.000E+00
       1     1     1     2   511     0  6.745102507E+00  7.192086276E+00 -3.245826614E+00  1.038065043E+01  0.000000000E+00  0.00000E+00  9.000E+00
#pdf  -1  1 0.13502764E-02 0.38332779E-01 0.93527612E+02 0.12984555E+01 0.47366451E+00
#rwgt            1           5   635.90559520803322         54217137    18380309           0
</event>
<event>
      6  10013  3.31628E+03  2.32810E+01 -1.00000E+00  1.61065E-01
       1    -1     0     0   501     0  0.000000000E+00  0.000000000E+00  3.165584491E+02  3.165584491E+02  0.000000000E+00  0.00000E+00  9.000E+00
      21    -1     0     0   511   501  0.000000000E+00  0.000000000E+00 -1.112930382E+01  1.112930382E+01  0.000000000E+00  0.00000E+00  9.000E+00
      23     2     1     2     0     0  2.307282021E+01 -3.106268180E+00  2.259115693E+02  2.448321627E+02  9.145898990E+01  0.00000E+00  9.000E+00
      13     1     3     3     0     0  5.051250994E+00  3.076815218E+01  1.891200375E+02  1.916731439E+02  1.056583668E-01  0.00000E+00  9.000E+00
     -13     1     3     3     0     0  1.802156921E+01 -3.387442037E+01  3.679153174E+01  5.315901884E+01  1.056583668E-01  0.00000E+00  9.000E+00
       1     1     1     2   511     0 -2.307282021E+01  3.106268180E+00  7.951757604E+01  8.285559024E+01  0.000000000E+00  0.00000E+00  9.000E+00
#pdf   1 -1 0.35091986E-01 0.14104515E-02 0.91458990E+02 0.48354684E+00 0.12717327E+01
#rwgt            1           6   901.47298730970533         54217137    18380402           0
</event>
<event>
      6  10013  3.31628E+03  3.22567E+01 -1.00000E+00  1.50850E-01
      21    -1     0     0   511   501  0.000000000E+00  0.000000000E+00  3.105832133E+00  3.105832133E+00  0.000000000E+00  0.00000E+00  9.000E+00
       3    -1     0     0   501     0  0.000000000E+00  0.000000000E+00 -5.875257791E+02  5.875257791E+02  0.000000000E+00  0.00000E+00  9.000E+00
      23     2     1     2     0     0 -5.018769716E+00  3.186391118E+01 -4.684648056E+02  4.702734304E+02  2.563841579E+01  0.00000E+00  9.000E+00
      13     1     3     3     0     0 -5.418647099E+00 -3.037225211E+00 -8.253423375E+01  8.276773150E+01  1.056583668E-01  0.00000E+00  9.000E+00
     -13     1     3     3     0     0  3.998773827E-01  3.490113640E+01 -3.859305718E+02  3.875056989E+02  1.056583668E-01  0.00000E+00  9.000E+00
       3     1     1     2   511     0  5.018769716E+00 -3.186391118E+01 -1.159551414E+02  1.203581809E+02  0.000000000E+00  0.00000E+00  9.000E+00
#pdf  -3  3 0.86566492E-04 0.44930976E-01 0.25638416E+02 0.24346928E+01 0.16385505E+00
#rwgt            1           3   103.61269858640377         54217137    18380448           0
</event>
<event>
      6  10013  3.31628E+03  3.11999E+00 -1.00000E+00  2.91659E-01
      -2    -1     0     0     0   501  0.000000000E+00  0.000000000E+00  2.348703819E+00  2.348703819E+00  0.000000000E+00  0.00000E+00  9.000E+00
       2    -1     0     0   511     0  0.000000000E+00  0.000000000E+00 -1.068648739E+02  1.068648739E+02  0.000000000E+00  0.00000E+00  9.000E+00
      23     2     1     2     0     0  1.728270039E+00 -2.597582732E+00 -9.410215589E+01  9.834223719E+01  2.839446281E+01  0.00000E+00  9.000E+00
      13     1     3     3     0     0  4.780712055E-01 -1.515327932E+01 -3.971495396E+01  4.251045939E+01  1.056583668E-01  0.00000E+00  9.000E+00
     -13     1     3     3     0     0  1.250198834E+00  1.255569659E+01 -5.438720193E+01  5.583177779E+01  1.056583668E-01  0.00000E+00  9.000E+00
      21     1     1     2   511   501 -1.728270039E+00  2.597582732E+00 -1.041401420E+01  1.087134054E+01  0.000000000E+00  0.00000E+00  9.000E+00
#pdf  -2  2 0.32420877E-03 0.14714850E-01 0.28394463E+02 0.16975155E+01 0.66145034E+00
#rwgt            1           4   1218.9479419334943         54217137    18380475           0
</event>
<event>
      6  10013  3.31628E+03  1.40846E+01 -1.00000E+00  1.79950E-01
       1    -1     0     0   501     0  0.000000000E+00  0.000000000E+00  1.334907218E+01  1.334907218E+01  0.000000000E+00  0.00000E+00  9.000E+00
      21    -1     0     0   511   501  0.000000000E+00  0.000000000E+00 -2.400208913E+02  2.400208913E+02  0.000000000E+00  0.00000E+00  9.000E+00
      23     2     1     2     0     0 -1.033100841E+01 -9.573166953E+00 -1.589248110E+02  1.841743541E+02  9.200392312E+01  0.00000E+00  9.000E+00
      13     1     3     3     0     0  5.607525597E-01 -4.894044400E+01 -6.197188107E+01  7.896839057E+01  1.056583668E-01  0.00000E+00  9.000E+00
     -13     1     3     3     0     0 -1.089176097E+01  3.936727705E+01 -9.695292998E+01  1.052059635E+02  1.056583668E-01  0.00000E+00  9.000E+00
       1     1     1     2   511     0  1.033100841E+01  9.573166953E+00 -6.774700802E+01  6.919560937E+01  0.000000000E+00  0.00000E+00  9.000E+00
#pdf   1 -1 0.19199058E-02 0.26088317E-01 0.92003923E+02 0.11857295E+01 0.32606714E+00
#rwgt            1           6   558.49756590160155         54217137    18380648           0
</event>
<event>
      6  10013  3.31628E+03  6.49851E+00 -1.00000E+00  2.20145E-01
       2    -1     0     0   501     0  0.000000000E+00  0.000000000E+00  3.781391873E+01  3.781391873E+01  0.000000000E+00  0.00000E+00  9.000E+00
      -2    -1     0     0     0   511  0.000000000E+00  0.000000000E+00 -9.916707857E+01  9.916707857E+01  0.000000000E+00  0.00000E+00  9.000E+00
      23     2     1     2     0     0  5.747196038E+00  3.033206648E+00 -1.852412862E+01  9.366175768E+01  9.158138952E+01  0.00000E+00  9.000E+00
      13     1     3     3     0     0 -1.521636216E+01  1.977481786E+01  2.950893301E+01  3.864413785E+01  1.056583668E-01  0.00000E+00  9.000E+00
     -13     1     3     3     0     0  2.096355820E+01 -1.674161121E+01 -4.803306163E+01  5.501761983E+01  1.056583668E-01  0.00000E+00  9.000E+00
      21     1     1     2   501   511 -5.747196038E+00 -3.033206648E+00 -4.282903122E+01  4.331923961E+01  4.768371582E-07  0.00000E+00  9.000E+00
#pdf   2 -2 0.57653212E-02 0.86080394E-02 0.91581390E+02 0.87065778E+00 0.56370570E+00
#rwgt            1           7   532.10802366686289         54217137    18380755           0
</event>
<event>
      6  10013  3.31628E+03  3.13197E+01 -1.00000E+00  1.51718E-01
       1    -1     0     0   501     0  0.000000000E+00  0.000000000E+00  2.433172502E+03  2.433172502E+03  0.000000000E+00  0.00000E+00  9.000E+00
      21    -1     0     0   511   501  0.000000000E+00  0.000000000E+00 -1.887650515E+00  1.887650515E+00  0.000000000E+00  0.00000E+00  9.000E+00
      23     2     1     2     0     0  1.656250312E+01 -2.658213468E+01  2.104619107E+03  2.106896420E+03  9.279016517E+01  0.00000E+00  9.000E+00
      13     1     3     3     0     0  2.142748004E+00 -4.940599452E+01  5.998106855E+02  6.018458384E+02  1.056583668E-01  0.00000E+00  9.000E+00
     -13     1     3     3     0     0  1.441975512E+01  2.282385984E+01  1.504808421E+03  1.505050582E+03  1.056583668E-01  0.00000E+00  9.000E+00
       1     1     1     2   511     0 -1.656250312E+01  2.658213468E+01  3.266657449E+02  3.281637324E+02  0.000000000E+00  0.00000E+00  9.000E+00
#pdf   1 -1 0.30694912E+00 0.16597811E-03 0.92790165E+02 0.12554915E+00 0.28610552E+01
#rwgt            1           6   769.30261812372612         54217137    18380826           0
</event>
<event>
      6  10013  3.31628E+03  8.80202E+00 -1.00000E+00  2.02327E-01
      -1    -1     0     0     0   511  0.000000000E+00  0.000000000E+00  2.072800044E+01  2.072800044E+01  0.000000000E+00  0.00000E+00  9.000E+00
       1    -1     0     0   501     0  0.000000000E+00  0.000000000E+00 -1.343018741E+02  1.343018741E+02  0.000000000E+00  0.00000E+00  9.000E+00
      23     2     1     2     0     0 -7.972962863E+00  3.729259888E+00 -1.166120655E+02  1.457182622E+02  8.693654352E+01  0.00000E+00  9.000E+00
      13     1     3     3     0     0  3.851276387E+01 -8.225572826E+00 -5.220688450E+01  6.539467090E+01  1.056583668E-01  0.00000E+00  9.000E+00
     -13     1     3     3     0     0 -4.648572673E+01  1.195483271E+01 -6.440518096E+01  8.032359126E+01  1.056583668E-01  0.00000E+00  9.000E+00
      21     1     1     2   501   511  7.972962863E+00 -3.729259888E+00  3.038191788E+00  9.311612399E+00  1.397852826E-07  0.00000E+00  9.000E+00
#pdf  -1  1 0.22275502E-02 0.20076617E-01 0.86936544E+02 0.10487426E+01 0.55366150E+00
#rwgt            1           5   772.33079083520408         54217137    18380853           0
</event>
<event>
      6  10013  3.31628E+03  4.34290E+00 -1.00000E+00  2.55227E-01
      -1    -1     0     0     0   501  0.000000000E+00  0.000000000E+00  3.787563416E+00  3.787563416E+00  0.000000000E+00  0.00000E+00  9.000E+00
       1    -1     0     0   511     0  0.000000000E+00  0.000000000E+00 -6.377686143E+02  6.377686143E+02  0.000000000E+00  0.00000E+00  9.000E+00
      23     2     1     2     0     0  3.661898715E+00  2.334800417E+00 -5.931629254E+02  6.005076678E+02  9.353257330E+01  0.00000E+00  9.000E+00
      13     1     3     3     0     0  1.392269632E+01  2.433240355E+01 -5.440417495E+01  6.120239171E+01  1.056583668E-01  0.00000E+00  9.000E+00
     -13     1     3     3     0     0 -1.026079760E+01 -2.199760313E+01 -5.387587504E+02  5.393052761E+02  1.056583668E-01  0.00000E+00  9.000E+00
      21     1     1     2   511   501 -3.661898715E+00 -2.334800417E+00 -4.081812549E+01  4.104850989E+01  6.743495762E-07  0.00000E+00  9.000E+00
#pdf  -1  1 0.56437214E-03 0.91721995E-01 0.93532573E+02 0.18241646E+01 0.37297098E+00
#rwgt            1           5   913.80714092340088         54217137    18380922           0
</event>
<event>
      6  10013  3.31628E+03  1.03220E+01 -1.00000E+00  1.94122E-01
       2    -1     0     0   501     0  0.000000000E+00  0.000000000E+00  9.863000374E+02  9.863000374E+02  0.000000000E+00  0.00000E+00  9.000E+00
      21    -1     0     0   511   501  0.000000000E+00  0.000000000E+00 -1.075660205E+00  1.075660205E+00  0.000000000E+00  0.00000E+00  9.000E+00
      23     2     1     2     0     0 -9.235592243E+00  4.609459949E+00  9.540590689E+02  9.545455327E+02  2.866921355E+01  0.00000E+00  9.000E+00
      13     1     3     3     0     0 -1.696257815E+01 -3.632216779E+00  7.255355217E+02  7.257428791E+02  1.056583668E-01  0.00000E+00  9.000E+00
     -13     1     3     3     0     0  7.726985906E+00  8.241676728E+00  2.285235472E+02  2.288026537E+02  1.056583668E-01  0.00000E+00  9.000E+00
       2     1     1     2   511     0  9.235592243E+00 -4.609459949E+00  3.116530831E+01  3.283016490E+01  0.000000000E+00  0.00000E+00  9.000E+00
#pdf   2 -2 0.13813545E+00 0.35207867E-04 0.28669214E+02 0.59814140E+00 0.34322501E+01
#rwgt            1           7   2614.2318823033797         54217137    18381003           0
</event>
<event>
      6  10013  3.31628E+03  2.76448E+00 -1.00000E+00  3.07925E-01
       2    -1     0     0   501     0  0.000000000E+00  0.000000000E+00  2.532010469E+02  2.532010469E+02  0.000000000E+00  0.00000E+00  9.000E+00
      21    -1     0     0   511   501  0.000000000E+00  0.000000000E+00 -1.036747566E+00  1.036747566E+00  0.000000000E+00  0.00000E+00  9.000E+00
      23     2     1     2     0     0  1.970562506E+00 -1.938868594E+00  2.456595676E+02  2.471699898E+02  2.714292492E+01  0.00000E+00  9.000E+00
      13     1     3     3     0     0 -4.362429517E+00  4.286940873E-01  6.085967169E+00  7.500981935E+00  1.056583668E-01  0.00000E+00  9.000E+00
     -13     1     3     3     0     0  6.332992023E+00 -2.367562681E+00  2.395736004E+02  2.396690078E+02  1.056583668E-01  0.00000E+00  9.000E+00
       2     1     1     2   511     0 -1.970562506E+00  1.938868594E+00  6.504731782E+00  7.067804720E+00  0.000000000E+00  0.00000E+00  9.000E+00
#pdf   2 -2 0.37714859E-01 0.11558836E-03 0.27142925E+02 0.62784065E+00 0.23339708E+01
#rwgt            1           7   1575.2029844368003         54217137    18381042           0
</event>
<event>
      6  10013  3.31628E+03  1.05359E+01 -1.00000E+00  1.93116E-01
       1    -1     0     0   501     0  0.000000000E+00  0.000000000E+00  3.634460192E+02  3.634460192E+02  0.000000000E+00  0.00000E+00  9.000E+00
      21    -1     0     0   511   501  0.000000000E+00  0.000000000E+00 -6.785689981E+00  6.785689981E+00  0.000000000E+00  0.00000E+00  9.000E+00
      23     2     1     2     0     0 -9.673920166E+00 -4.173699368E+00  3.159507270E+02  3.281808327E+02  8.812940814E+01  0.00000E+00  9.000E+00
      13     1     3     3     0     0  5.844255423E+00  3.841549664E+01  1.988927087E+02  2.026529705E+02  1.056583668E-01  0.00000E+00  9.000E+00
     -13     1     3     3     0     0 -1.551817559E+01 -4.258919601E+01  1.170580183E+02  1.255278622E+02  1.056583668E-01  0.00000E+00  9.000E+00
       1     1     1     2   511     0  9.673920166E+00  4.173699368E+00  4.070960223E+01  4.205087646E+01  0.000000000E+00  0.00000E+00  9.000E+00
#pdf   1 -1 0.49198253E-01 0.93412569E-03 0.88129408E+02 0.44644513E+00 0.14875078E+01
#rwgt            1           6   883.16325431093992         54217137    18381185           0
</event>
<event>
      6  10013  3.31628E+03  2.01068E+00 -1.00000E+00  3.61782E-01
      -1    -1     0     0     0   511  0.000000000E+00  0.000000000E+00  3.849449132E-01  3.849449132E-01  0.000000000E+00  0.00000E+00  9.000E+00
       1    -1     0     0   501     0  0.000000000E+00  0.000000000E+00 -3.955075394E+02  3.955075394E+02  0.000000000E+00  0.00000E+00  9.000E+00
      23     2     1     2     0     0  1.716030925E+00 -1.047891369E+00 -3.787941155E+02  3.794406739E+02  2.204994934E+01  0.00000E+00  9.000E+00
      13     1     3     3     0     0 -6.761197760E+00  9.802546424E-01 -3.126459884E+02  3.127206420E+02  1.056583668E-01  0.00000E+00  9.000E+00
     -13     1     3     3     0     0  8.477228685E+00 -2.028146012E+00 -6.614812704E+01  6.672003191E+01  1.056583668E-01  0.00000E+00  9.000E+00
      21     1     1     2   501   511 -1.716030925E+00  1.047891369E+00 -1.632847899E+01  1.645181038E+01  3.371747881E-07  0.00000E+00  9.000E+00
#pdf  -1  1 0.49529767E-04 0.58084761E-01 0.22049949E+02 0.28222233E+01 0.43434737E+00
#rwgt            1           5   283.88938608950127         54217137    18381248           0
</event>
<event>
      6  10013  3.31628E+03  2.76041E+00 -1.00000E+00  3.08135E-01
       2    -1     0     0   501     0  0.000000000E+00  0.000000000E+00  1.616940504E+03  1.616940504E+03  0.000000000E+00  0.00000E+00  9.000E+00
      -2    -1     0     0     0   511  0.000000000E+00  0.000000000E+00 -1.490474180E-01  1.490474180E-01  0.000000000E+00  0.00000E+00  9.000E+00
      23     2     1     2     0     0  2.749925434E+00 -2.403393402E-01  1.533575732E+03  1.533828055E+03  2.768318613E+01  0.00000E+00  9.000E+00
      13     1     3     3     0     0 -1.064211786E+01  5.901337138E+00  8.929533944E+02  8.930363129E+02  1.056583668E-01  0.00000E+00  9.000E+00
     -13     1     3     3     0     0  1.339204329E+01 -6.141676478E+00  6.406223372E+02  6.407917424E+02  1.056583668E-01  0.00000E+00  9.000E+00
      21     1     1     2   501   511 -2.749925434E+00  2.403393402E-01  8.321572473E+01  8.326149588E+01  1.348699152E-06  0.00000E+00  9.000E+00
#pdf   2 -2 0.23478978E+00 0.19313735E-04 0.27683186E+02 0.48971982E+00 0.40603557E+01
#rwgt            1           7   3449.3411583460461         54217137    18381320           0
</event>
<event>
      6  10013  3.31628E+03  8.85170E+00 -1.00000E+00  2.02025E-01
      -4    -1     0     0     0   511  0.000000000E+00  0.000000000E+00  1.887395418E+01  1.887395418E+01  0.000000000E+00  0.00000E+00  9.000E+00
       4    -1     0     0   501     0  0.000000000E+00  0.000000000E+00 -1.411349401E+02  1.411349401E+02  0.000000000E+00  0.00000E+00  9.000E+00
      23     2     1     2     0     0  1.370630880E+00  8.744935479E+00 -1.190568613E+02  1.505951309E+02  9.179327163E+01  0.00000E+00  9.000E+00
      13     1     3     3     0     0 -1.097792733E+01  4.186902258E+01 -1.030843605E+02  1.118030701E+02  1.056583668E-01  0.00000E+00  9.000E+00
     -13     1     3     3     0     0  1.234855821E+01 -3.312408710E+01 -1.597250071E+01  3.879206077E+01  1.056583668E-01  0.00000E+00  9.000E+00
      21     1     1     2   501   511 -1.370630880E+00 -8.744935479E+00 -3.204124640E+00  9.413763341E+00  2.190014490E-07  0.00000E+00  9.000E+00
#pdf  -4  4 0.24148191E-02 0.20646687E-01 0.91793272E+02 0.78278590E+00 0.20420942E+00
#rwgt            1           2   193.35821741593423         54217137    18381406           0
</event>
<event>
      6  10013  3.31628E+03  4.66555E+00 -1.00000E+00  2.48558E-01
       2    -1     0     0   511     0  0.000000000E+00  0.000000000E+00  2.322617312E+01  2.322617312E+01  0.000000000E+00  0.00000E+00  9.000E+00
      -2    -1     0     0     0   501  0.000000000E+00  0.000000000E+00 -1.184746160E+01  1.184746160E+01  0.000000000E+00  0.00000E+00  9.000E+00
      23     2     1     2     0     0  4.540514440E+00 -1.072893275E+00  9.369355766E+00  2.999378414E+01  2.810827082E+01  0.00000E+00  9.000E+00
      13     1     3     3     0     0 -9.011256828E+00 -6.792529504E+00 -1.925195604E+00  1.144808929E+01  1.056583668E-01  0.00000E+00  9.000E+00
     -13     1     3     3     0     0  1.355177127E+01  5.719636229E+00  1.129455137E+01  1.854569485E+01  1.056583668E-01  0.00000E+00  9.000E+00
      21     1     1     2   511   501 -4.540514440E+00  1.072893275E+00  2.009355749E+00  5.079850577E+00  9.424321831E-08  0.00000E+00  9.000E+00
#pdf   2 -2 0.29870651E-02 0.15650812E-02 0.28108271E+02 0.89728923E+00 0.98648814E+00
#rwgt            1           7   689.96228463274088         54217137    18381482           0
</event>
<event>
      6  10013  3.31628E+03  1.54680E+00 -1.00000E+00  4.24391E-01
       1    -1     0     0   511     0  0.000000000E+00  0.000000000E+00  4.119316553E+00  4.119316553E+00  0.000000000E+00  0.00000E+00  9.000E+00
      -1    -1     0     0     0   501  0.000000000E+00  0.000000000E+00 -4.872290863E+01  4.872290863E+01  0.000000000E+00  0.00000E+00  9.000E+00
      23     2     1     2     0     0 -2.080547927E-01  1.532748781E+00 -4.595932467E+01  5.078537893E+01  2.155232200E+01  0.00000E+00  9.000E+00
      13     1     3     3     0     0  3.232238904E+00 -9.505234203E+00 -2.080244548E+01  2.309869579E+01  1.056583668E-01  0.00000E+00  9.000E+00
     -13     1     3     3     0     0 -3.440293697E+00  1.103798298E+01 -2.515687919E+01  2.768668314E+01  1.056583668E-01  0.00000E+00  9.000E+00
      21     1     1     2   511   501  2.080547927E-01 -1.532748781E+00  1.355732595E+00  2.056846249E+00  6.495265579E-08  0.00000E+00  9.000E+00
#pdf   1 -1 0.37028252E-03 0.74228078E-02 0.21552322E+02 0.15323496E+01 0.53369674E+00
#rwgt            1           6   193.74361826624943         54217137    18381547           0
</event>
<event>
      6  10013  3.31628E+03  5.40957E+00 -1.00000E+00  2.32610E-01
      21    -1     0     0   511   501  0.000000000E+00  0.000000000E+00  3.179184758E+00  3.179184758E+00  0.000000000E+00  0.00000E+00  9.000E+00
       1    -1     0     0   501     0  0.000000000E+00  0.000000000E+00 -7.864469597E+02  7.864469597E+02  0.000000000E+00  0.00000E+00  9.000E+00
      23     2     1     2     0     0  2.156411512E+00 -4.961186583E+00 -7.685808081E+02  7.739746117E+02  9.105480480E+01  0.00000E+00  9.000E+00
      13     1     3     3     0     0 -3.883463091E+00  3.143931201E+01 -1.130042279E+02  1.173604632E+02  1.056583668E-01  0.00000E+00  9.000E+00
     -13     1     3     3     0     0  6.039874604E+00 -3.640049859E+01 -6.555765802E+02  6.566141486E+02  1.056583668E-01  0.00000E+00  9.000E+00
       1     1     1     2   511     0 -2.156411512E+00  4.961186583E+00 -1.468696680E+01  1.565153272E+01  0.000000000E+00  0.00000E+00  9.000E+00
#pdf  -1  1 0.41417768E-03 0.11844926E+00 0.91054805E+02 0.20394994E+01 0.33520311E+00
#rwgt            1           5   855.78856149645583         54217137    18381640           0
</event>
<event>
      6  10013  3.31628E+03  6.57170E+00 -1.00000E+00  2.19429E-01
      21    -1     0     0   501   511  0.000000000E+00  0.000000000E+00  4.941347007E+01  4.941347007E+01  0.000000000E+00  0.00000E+00  9.000E+00
      -3    -1     0     0     0   501  0.000000000E+00  0.000000000E+00 -9.378085260E+00  9.378085260E+00  0.000000000E+00  0.00000E+00  9.000E+00
      23     2     1     2     0     0  1.970726009E+00  6.269243796E+00  9.322138997E+00  2.738310667E+01  2.489467969E+01  0.00000E+00  9.000E+00
      13     1     3     3     0     0 -1.128852048E+01  4.681387394E+00  2.879403749E+00  1.255580393E+01  1.056583668E-01  0.00000E+00  9.000E+00
     -13     1     3     3     0     0  1.325924649E+01  1.587856402E+00  6.442735248E+00  1.482730274E+01  1.056583668E-01  0.00000E+00  9.000E+00
      -3     1     1     2     0   511 -1.970726009E+00 -6.269243796E+00  3.071324581E+01  3.140844866E+01  0.000000000E+00  0.00000E+00  9.000E+00
#pdf   3 -3 0.27299629E-02 0.13432895E-02 0.24894680E+02 0.75039979E+00 0.97598932E+00
#rwgt            1           8   174.85168300497233         54217137    18381744           0
</event>
<event>
      6  10013  3.31628E+03  2.64627E+00 -1.00000E+00  3.14288E-01
       1    -1     0     0   501     0  0.000000000E+00  0.000000000E+00  8.626349223E+01  8.626349223E+01  0.000000000E+00  0.00000E+00  9.000E+00
      -1    -1     0     0     0   511  0.000000000E+00  0.000000000E+00 -4.143430907E+01  4.143430907E+01  0.000000000E+00  0.00000E+00  9.000E+00
      23     2     1     2     0     0  2.601712286E+00 -4.835447089E-01  6.556702297E+01  1.067918040E+02  8.425231263E+01  0.00000E+00  9.000E+00
      13     1     3     3     0     0  2.455959915E+01 -1.178049884E+01  7.543277940E+01  8.020018351E+01  1.056583668E-01  0.00000E+00  9.000E+00
     -13     1     3     3     0     0 -2.195788686E+01  1.129695413E+01 -9.865756435E+00  2.659162052E+01  1.056583668E-01  0.00000E+00  9.000E+00
      21     1     1     2   501   511 -2.601712286E+00  4.835447089E-01 -2.073783981E+01  2.090599728E+01  4.129530925E-07  0.00000E+00  9.000E+00
#pdf   1 -1 0.13251836E-01 0.31695740E-02 0.84252313E+02 0.61877683E+00 0.90156936E+00
#rwgt            1           6   629.39727993824056         54217137    18381794           0
</event>
<event>
      6  10013  3.31628E+03  5.59524E+00 -1.00000E+00  2.30206E-01
       2    -1     0     0   501     0  0.000000000E+00  0.000000000E+00  1.072473109E+03  1.072473109E+03  0.000000000E+00  0.00000E+00  9.000E+00
      -2    -1     0     0     0   511  0.000000000E+00  0.000000000E+00 -2.170912073E+00  2.170912073E+00  0.000000000E+00  0.00000E+00  9.000E+00
      23     2     1     2     0     0 -2.523050097E+00 -4.994090809E+00  1.042451065E+03  1.046236411E+03  8.874175666E+01  0.00000E+00  9.000E+00
      13     1     3     3     0     0  9.711580448E+00  2.396311352E+01  8.994177920E+02  8.997893761E+02  1.056583668E-01  0.00000E+00  9.000E+00
     -13     1     3     3     0     0 -1.223463055E+01 -2.895720433E+01  1.430332729E+02  1.464470354E+02  1.056583668E-01  0.00000E+00  9.000E+00
      21     1     1     2   501   511  2.523050097E+00  4.994090809E+00  2.785113206E+01  2.840760957E+01  5.840038640E-07  0.00000E+00  9.000E+00
#pdf   2 -2 0.16034986E+00 0.29060345E-03 0.88741757E+02 0.54301634E+00 0.23080610E+01
#rwgt            1           7   1657.5391049766802         54217137    18381901           0
</event>
<event>
      6  10013  3.31628E+03  2.26851E+00 -1.00000E+00  3.39146E-01
      21    -1     0     0   511   501  0.000000000E+00  0.000000000E+00  1.047939498E+01  1.047939498E+01  0.000000000E+00  0.00000E+00  9.000E+00
       4    -1     0     0   501     0  0.000000000E+00  0.000000000E+00 -4.981840313E+01  4.981840313E+01  0.000000000E+00  0.00000E+00  9.000E+00
      23     2     1     2     0     0 -2.221974643E+00 -4.571047369E-01 -3.987588074E+01  5.796662926E+01  4.201069062E+01  0.00000E+00  9.000E+00
      13     1     3     3     0     0 -6.694658169E+00  1.765733188E+01 -3.311446369E+01  3.812058088E+01  1.056583668E-01  0.00000E+00  9.000E+00
     -13     1     3     3     0     0  4.472683526E+00 -1.811443662E+01 -6.761417053E+00  1.984604838E+01  1.056583668E-01  0.00000E+00  9.000E+00
       4     1     1     2   511     0  2.221974643E+00  4.571047369E-01  5.368725989E-01  2.331168857E+00  0.000000000E+00  0.00000E+00  9.000E+00
#pdf  -4  4 0.13895716E-02 0.75153981E-02 0.42010691E+02 0.85695778E+00 0.37246475E+00
#rwgt            1           2   466.56095897641637         54217137    18381990           0
</event>
<event>
      6  10013  3.31628E+03  2.38481E+00 -1.00000E+00  3.30627E-01
      -2    -1     0     0     0   501  0.000000000E+00  0.000000000E+00  4.372968142E-01  4.372968142E-01  0.000000000E+00  0.00000E+00  9.000E+00
      21    -1     0     0   501   511  0.000000000E+00  0.000000000E+00 -4.406769798E+02  4.406769798E+02  0.000000000E+00  0.00000E+00  9.000E+00
      23     2     1     2     0     0  1.696877776E+00  1.675686361E+00 -4.295806832E+02  4.301917497E+02  2.279672705E+01  0.00000E+00  9.000E+00
      13     1     3     3     0     0 -6.639526365E+00  1.017234798E+00 -4.308341701E+01  4.360401428E+01  1.056583668E-01  0.00000E+00  9.000E+00
     -13     1     3     3     0     0  8.336404141E+00  6.584515625E-01 -3.864972662E+02  3.865877354E+02  1.056583668E-01  0.00000E+00  9.000E+00
      -2     1     1     2     0   511 -1.696877776E+00 -1.675686361E+00 -1.065899976E+01  1.092252694E+01  0.000000000E+00  0.00000E+00  9.000E+00
#pdf  -2  2 0.46749999E-04 0.65777398E-01 0.22796727E+02 0.29035370E+01 0.62841183E+00
#rwgt            1           4   1960.5229179445980         54217137    18382145           0
</event>
<event>
      6  10013  3.31628E+03  6.41346E+00 -1.00000E+00  2.20994E-01
      -1    -1     0     0     0   511  0.000000000E+00  0.000000000E+00  1.897889891E+00  1.897889891E+00  0.000000000E+00  0.00000E+00  9.000E+00
       1    -1     0     0   501     0  0.000000000E+00  0.000000000E+00 -1.643641771E+03  1.643641771E+03  0.000000000E+00  0.00000E+00  9.000E+00
      23     2     1     2     0     0 -4.064376658E+00 -4.961183406E+00 -1.626916515E+03  1.629384684E+03  8.942017963E+01  0.00000E+00  9.000E+00
      13     1     3     3     0     0  7.701760079E+00  3.556901984E+01 -3.761818745E+02  3.779382041E+02  1.056583668E-01  0.00000E+00  9.000E+00
     -13     1     3     3     0     0 -1.176613674E+01 -4.053020325E+01 -1.250734640E+03  1.251446479E+03  1.056583668E-01  0.00000E+00  9.000E+00
      21     1     1     2   501   511  4.064376658E+00  4.961183406E+00 -1.482736586E+01  1.615497684E+01  9.830249847E-07  0.00000E+00  9.000E+00
#pdf  -1  1 0.18937268E-03 0.24984292E+00 0.89420180E+02 0.27065413E+01 0.17743293E+00
#rwgt            1           5   722.81735164761858         54217137    18382292           0
</event>
<event>
      6  10013  3.31628E+03  2.68309E+00 -1.00000E+00  3.12245E-01
       2    -1     0     0   501     0  0.000000000E+00  0.000000000E+00  4.933981648E+02  4.933981648E+02  0.000000000E+00  0.00000E+00  9.000E+00
      21    -1     0     0   511   501  0.000000000E+00  0.000000000E+00 -3.245701649E-01  3.245701649E-01  0.000000000E+00  0.00000E+00  9.000E+00
      23     2     1     2     0     0 -4.509725137E-02  2.682714068E+00  4.718419453E+02  4.723222227E+02  2.112490932E+01  0.00000E+00  9.000E+00
      13     1     3     3     0     0 -1.461311154E+00  6.026412398E-02  4.627766132E+02  4.627789364E+02  1.056583668E-01  0.00000E+00  9.000E+00
     -13     1     3     3     0     0  1.416213903E+00  2.622449944E+00  9.065332051E+00  9.543286353E+00  1.056583668E-01  0.00000E+00  9.000E+00
       2     1     1     2   511     0  4.509725137E-02 -2.682714068E+00  2.123164942E+01  2.140051227E+01  0.000000000E+00  0.00000E+00  9.000E+00
#pdf   2 -2 0.72049198E-01 0.36649989E-04 0.21124909E+02 0.62896521E+00 0.30338077E+01
#rwgt            1           7   2699.3692041236891         54217137    18382412           0
</event>
<event>
      6  10013  3.31628E+03  2.35354E+01 -1.00000E+00  1.60701E-01
       2    -1     0     0   501     0  0.000000000E+00  0.000000000E+00  1.213988846E+03  1.213988846E+03  0.000000000E+00  0.00000E+00  9.000E+00
      21    -1     0     0   511   501  0.000000000E+00  0.000000000E+00 -4.348816252E+00  4.348816252E+00  0.000000000E+00  0.00000E+00  9.000E+00
      23     2     1     2     0     0  1.656807122E+01  1.671566717E+01  1.144986864E+03  1.149533982E+03  9.939589330E+01  0.00000E+00  9.000E+00
      13     1     3     3     0     0 -1.154018883E+01  4.732334951E+00  1.675335204E+01  2.088676425E+01  1.056583668E-01  0.00000E+00  9.000E+00
     -13     1     3     3     0     0  2.810826005E+01  1.198333222E+01  1.128233512E+03  1.128647218E+03  1.056583668E-01  0.00000E+00  9.000E+00
       2     1     1     2   511     0 -1.656807122E+01 -1.671566717E+01  6.465316602E+01  6.880368005E+01  0.000000000E+00  0.00000E+00  9.000E+00
#pdf   2 -2 0.17175246E+00 0.34036682E-03 0.99395893E+02 0.52557330E+00 0.22263937E+01
#rwgt            1           7   688.24876096309004         54217137    18382487           0
</event>
<event>
      6  10013  3.31628E+03  1.55386E+00 -1.00000E+00  4.23103E-01
       1    -1     0     0   501     0  0.000000000E+00  0.000000000E+00  6.609654760E+00  6.609654760E+00  0.000000000E+00  0.00000E+00  9.000E+00
      -1    -1     0     0     0   511  0.000000000E+00  0.000000000E+00 -1.360567876E+02  1.360567876E+02  0.000000000E+00  0.00000E+00  9.000E+00
      23     2     1     2     0     0 -1.279180743E+00 -8.821524582E-01 -1.094021076E+02  1.225612805E+02  5.522709330E+01  0.00000E+00  9.000E+00
      13     1     3     3     0     0  2.307494483E+01  5.625967813E+00 -8.180692721E+01  8.518502859E+01  1.056583668E-01  0.00000E+00  9.000E+00
     -13     1     3     3     0     0 -2.435412558E+01 -6.508120271E+00 -2.759518036E+01  3.737625189E+01  1.056583668E-01  0.00000E+00  9.000E+00
      21     1     1     2   501   511  1.279180743E+00  8.821524582E-01 -2.004502525E+01  2.010516186E+01  3.371747881E-07  0.00000E+00  9.000E+00
#pdf   1 -1 0.10118436E-02 0.17836279E-01 0.55227093E+02 0.13725897E+01 0.39320859E+00
#rwgt            1           6   268.02995032440867         54217137    18382553           0
</event>
<event>
      6  10013  3.31628E+03  2.76785E+01 -1.00000E+00  1.55473E-01
      -3    -1     0     0     0   501  0.000000000E+00  0.000000000E+00  3.619015521E+02  3.619015521E+02  0.000000000E+00  0.00000E+00  9.000E+00
       3    -1     0     0   511     0  0.000000000E+00  0.000000000E+00 -1.491172257E+01  1.491172257E+01  0.000000000E+00  0.00000E+00  9.000E+00
      23     2     1     2     0     0  4.439252476E-01  2.767491374E+01  3.321970339E+02  3.454297643E+02  9.055801922E+01  0.00000E+00  9.000E+00
      13     1     3     3     0     0 -1.181487173E+01 -6.483577391E+00  2.876735405E+02  2.879890710E+02  1.056583668E-01  0.00000E+00  9.000E+00
     -13     1     3     3     0     0  1.225879698E+01  3.415849113E+01  4.452349340E+01  5.744069331E+01  1.056583668E-01  0.00000E+00  9.000E+00
      21     1     1     2   511   501 -4.439252476E-01 -2.767491374E+01  1.479279570E+01  3.138351039E+01  6.743495762E-07  0.00000E+00  9.000E+00
#pdf  -3  3 0.49848732E-01 0.97344856E-03 0.90558019E+02 0.15074137E+00 0.14222738E+01
#rwgt            1           3   170.79323508444381         54217137    18382717           0
</event>
<event>
      6  10013  3.31628E+03  8.89233E+00 -1.00000E+00  2.01779E-01
      21    -1     0     0   511   501  0.000000000E+00  0.000000000E+00  2.566191629E+03  2.566191629E+03  0.000000000E+00  0.00000E+00  9.000E+00
       4    -1     0     0   501     0  0.000000000E+00  0.000000000E+00 -1.131043428E-01  1.131043428E-01  0.000000000E+00  0.00000E+00  9.000E+00
      23     2     1     2     0     0  3.617499031E+00 -8.123253089E+00  1.292142845E+03  1.292338019E+03  2.062400871E+01  0.00000E+00  9.000E+00
      13     1     3     3     0     0  1.111553799E+01 -9.536153567E+00  9.243614479E+02  9.244774691E+02  1.056583668E-01  0.00000E+00  9.000E+00
     -13     1     3     3     0     0 -7.498038962E+00  1.412900477E+00  3.677813973E+02  3.678605500E+02  1.056583668E-01  0.00000E+00  9.000E+00
       4     1     1     2   511     0 -3.617499031E+00  8.123253089E+00  1.273935680E+03  1.273966715E+03  0.000000000E+00  0.00000E+00  9.000E+00
#pdf  -4  4 0.18255994E+00 0.13786498E-04 0.20624009E+02 0.10093622E-01 0.32140631E+01
#rwgt            1           2   60.300293445457719         54217137    18382809           0
</event>
<event>
      6  10013  3.31628E+03  5.98953E+00 -1.00000E+00  2.25511E-01
       1    -1     0     0   501     0  0.000000000E+00  0.000000000E+00  9.153144550E+01  9.153144550E+01  0.000000000E+00  0.00000E+00  9.000E+00
      21    -1     0     0   511   501  0.000000000E+00  0.000000000E+00 -2.910434751E+01  2.910434751E+01  0.000000000E+00  0.00000E+00  9.000E+00
      23     2     1     2     0     0  5.654445334E+00  1.975284692E+00  6.346526120E+01  1.145569539E+02  9.518183553E+01  0.00000E+00  9.000E+00
      13     1     3     3     0     0  3.527944579E+01 -3.324104244E+01  2.479281899E+01  5.444539682E+01  1.056583668E-01  0.00000E+00  9.000E+00
     -13     1     3     3     0     0 -2.962500045E+01  3.521632713E+01  3.867244221E+01  6.011155712E+01  1.056583668E-01  0.00000E+00  9.000E+00
       1     1     1     2   511     0 -5.654445334E+00 -1.975284692E+00 -1.038163214E+00  6.078839076E+00  0.000000000E+00  0.00000E+00  9.000E+00
#pdf   1 -1 0.13666984E-01 0.39223719E-02 0.95181836E+02 0.61728179E+00 0.83435538E+00
#rwgt            1           6   557.36583909976866         54217137    18382865           0
</event>
<event>
      6  10013  3.31628E+03  3.35174E+00 -1.00000E+00  2.82857E-01
      -1    -1     0     0     0   501  0.000000000E+00  0.000000000E+00  2.138104813E+01  2.138104813E+01  0.000000000E+00  0.00000E+00  9.000E+00
       1    -1     0     0   511     0  0.000000000E+00  0.000000000E+00 -1.503733133E+02  1.503733133E+02  0.000000000E+00  0.00000E+00  9.000E+00
      23     2     1     2     0     0  3.271709668E+00  7.280450125E-01 -7.574666076E+01  1.184033678E+02  9.094265639E+01  0.00000E+00  9.000E+00
      13     1     3     3     0     0  3.298850841E+01 -2.077079478E+01 -5.784785809E+00  3.940992913E+01  1.056583668E-01  0.00000E+00  9.000E+00
     -13     1     3     3     0     0 -2.971679875E+01  2.149883980E+01 -6.996187495E+01  7.899343865E+01  1.056583668E-01  0.00000E+00  9.000E+00
      21     1     1     2   511   501 -3.271709668E+00 -7.280450125E-01 -5.324560438E+01  5.335099362E+01  9.536743164E-07  0.00000E+00  9.000E+00
#pdf  -1  1 0.32790589E-02 0.14924485E-01 0.90942656E+02 0.89683660E+00 0.60074704E+00
#rwgt            1           5   562.09591661060927         54217137    18382938           0
</event>
<event>
      6  10013  3.31628E+03  4.88196E+00 -1.00000E+00  2.44525E-01
       1    -1     0     0   501     0  0.000000000E+00  0.000000000E+00  3.889996456E+02  3.889996456E+02  0.000000000E+00  0.00000E+00  9.000E+00
      21    -1     0     0   511   501  0.000000000E+00  0.000000000E+00 -1.129107978E+01  1.129107978E+01  0.000000000E+00  0.00000E+00  9.000E+00
      23     2     1     2     0     0 -2.510128894E+00 -4.187220494E+00  3.827518845E+02  3.932715641E+02  9.022020019E+01  0.00000E+00  9.000E+00
      13     1     3     3     0     0  1.363815661E+01  2.121914386E+01  3.402750205E+02  3.412086636E+02  1.056583668E-01  0.00000E+00  9.000E+00
     -13     1     3     3     0     0 -1.614828551E+01 -2.540636436E+01  4.247686400E+01  5.206290055E+01  1.056583668E-01  0.00000E+00  9.000E+00
       1     1     1     2   511     0  2.510128894E+00  4.187220494E+00 -5.043318619E+00  7.019161290E+00  0.000000000E+00  0.00000E+00  9.000E+00
#pdf   1 -1 0.59606909E-01 0.80802402E-03 0.90220200E+02 0.42551687E+00 0.15796563E+01
#rwgt            1           6   1161.2414773370904         54217137    18383039           0
</event>
<event>
      6  10013  3.31628E+03  7.66495E+00 -1.00000E+00  2.10062E-01
      -2    -1     0     0     0   501  0.000000000E+00  0.000000000E+00  5.726880039E+00  5.726880039E+00  0.000000000E+00  0.00000E+00  9.000E+00
      21    -1     0     0   501   511  0.000000000E+00  0.000000000E+00 -1.253829089E+02  1.253829089E+02  0.000000000E+00  0.00000E+00  9.000E+00
      23     2     1     2     0     0 -4.078120132E+00  6.490019282E+00 -5.275373067E+01  6.376983856E+01  3.499835419E+01  0.00000E+00  9.000E+00
      13     1     3     3     0     0 -1.760860991E+01 -2.855686188E+00 -1.810611802E+01  2.541772531E+01  1.056583668E-01  0.00000E+00  9.000E+00
     -13     1     3     3     0     0  1.353048978E+01  9.345705470E+00 -3.464761264E+01  3.835211324E+01  1.056583668E-01  0.00000E+00  9.000E+00
      -2     1     1     2     0   511  4.078120132E+00 -6.490019282E+00 -6.690229820E+01  6.733995039E+01  0.000000000E+00  0.00000E+00  9.000E+00
#pdf  -2  2 0.82777341E-03 0.87558249E-02 0.34998354E+02 0.12977052E+01 0.72558054E+00
#rwgt            1           4   979.40553998745042         54217137    18383091           0
</event>
<event>
      6  10013  3.31628E+03  2.29218E+00 -1.00000E+00  3.37339E-01
      21    -1     0     0   511   501  0.000000000E+00  0.000000000E+00  2.085299115E-01  2.085299115E-01  0.000000000E+00  0.00000E+00  9.000E+00
       2    -1     0     0   501     0  0.000000000E+00  0.000000000E+00 -2.130130211E+03  2.130130211E+03  0.000000000E+00  0.00000E+00  9.000E+00
      23     2     1     2     0     0  8.586307308E-01  2.125281182E+00 -2.102151098E+03  2.102473721E+03  3.675939742E+01  0.00000E+00  9.000E+00
      13     1     3     3     0     0 -3.633546477E+00  3.172043515E+00 -3.649932589E+01  3.681679609E+01  1.056583668E-01  0.00000E+00  9.000E+00
     -13     1     3     3     0     0  4.492177208E+00 -1.046762333E+00 -2.065651773E+03  2.065656925E+03  1.056583668E-01  0.00000E+00  9.000E+00
       2     1     1     2   511     0 -8.586307308E-01 -2.125281182E+00 -2.777058259E+01  2.786501973E+01  0.000000000E+00  0.00000E+00  9.000E+00
#pdf  -2  2 0.24769022E-04 0.32280571E+00 0.36759397E+02 0.41652311E+01 0.34663624E+00
#rwgt            1           4   11055.254207477205         54217137    18383201           0
</event>
<event>
      6  10013  3.31628E+03  8.96731E+00 -1.00000E+00  2.01332E-01
       4    -1     0     0   501     0  0.000000000E+00  0.000000000E+00  9.554140901E+01  9.554140901E+01  0.000000000E+00  0.00000E+00  9.000E+00
      21    -1     0     0   511   501  0.000000000E+00  0.000000000E+00 -1.250376883E+01  1.250376883E+01  0.000000000E+00  0.00000E+00  9.000E+00
      23     2     1     2     0     0 -8.376729493E+00  3.200477644E+00  9.166547970E+01  9.560121268E+01  2.562457890E+01  0.00000E+00  9.000E+00
      13     1     3     3     0     0 -7.902569489E+00 -4.794275243E+00  8.402499814E+01  8.453192980E+01  1.056583668E-01  0.00000E+00  9.000E+00
     -13     1     3     3     0     0 -4.741600033E-01  7.994752886E+00  7.640481564E+00  1.106928289E+01  1.056583668E-01  0.00000E+00  9.000E+00
       4     1     1     2   511     0  8.376729493E+00 -3.200477644E+00 -8.627839515E+00  1.244396516E+01  0.000000000E+00  0.00000E+00  9.000E+00
#pdf   4 -4 0.13596616E-01 0.28575638E-03 0.25624579E+02 0.23493479E+00 0.13533365E+01
#rwgt            1           9   277.89578759006474         54217137    18383408           0
</event>
<event>
      6  10013  3.31628E+03  2.13606E+00 -1.00000E+00  3.50041E-01
      21    -1     0     0   511   501  0.000000000E+00  0.000000000E+00  9.843979766E-02  9.843979766E-02  0.000000000E+00  0.00000E+00  9.000E+00
       2    -1     0     0   501     0  0.000000000E+00  0.000000000E+00 -1.495702201E+03  1.495702201E+03  0.000000000E+00  0.00000E+00  9.000E+00
      23     2     1     2     0     0  5.265999477E-01 -2.070134427E+00 -1.396239191E+03  1.396413114E+03  2.193495844E+01  0.00000E+00  9.000E+00
      13     1     3     3     0     0 -4.755475382E+00 -6.174056138E+00 -1.955112503E+02  1.956665369E+02  1.056583668E-01  0.00000E+00  9.000E+00
     -13     1     3     3     0     0  5.282075330E+00  4.103921711E+00 -1.200727941E+03  1.200746577E+03  1.056583668E-01  0.00000E+00  9.000E+00
       2     1     1     2   511     0 -5.265999477E-01  2.070134427E+00 -9.936457001E+01  9.938752708E+01  0.000000000E+00  0.00000E+00  9.000E+00
#pdf  -2  2 0.13315668E-04 0.21380801E+00 0.21934958E+02 0.41339455E+01 0.52864000E+00
#rwgt            1           4   4060.9459958525790         54217137    18383463           0
</event>
<event>
      6  10013  3.31628E+03  2.00068E+00 -1.00000E+00  3.62788E-01
      -2    -1     0     0     0   511  0.000000000E+00  0.000000000E+00  1.563045710E-01  1.563045710E-01  0.000000000E+00  0.00000E+00  9.000E+00
       2    -1     0     0   501     0  0.000000000E+00  0.000000000E+00 -1.017343106E+03  1.017343106E+03  0.000000000E+00  0.00000E+00  9.000E+00
      23     2     1     2     0     0 -1.944124272E+00  4.723391938E-01 -9.972225649E+02  9.974351771E+02  2.049599730E+01  0.00000E+00  9.000E+00
      13     1     3     3     0     0 -5.466573793E+00  9.422982396E+00 -5.730977506E+02  5.732012901E+02  1.056583668E-01  0.00000E+00  9.000E+00
     -13     1     3     3     0     0  3.522449520E+00 -8.950643202E+00 -4.241248142E+02  4.242338870E+02  1.056583668E-01  0.00000E+00  9.000E+00
      21     1     1     2   501   511  1.944124272E+00 -4.723391938E-01 -1.996423690E+01  2.006423381E+01  2.384185791E-07  0.00000E+00  9.000E+00
#pdf  -2  2 0.16277422E-04 0.15270940E+00 0.20495997E+02 0.37953358E+01 0.59681378E+00
#rwgt            1           4   2748.4049250217927         54217137    18383699           0
</event>
<event>
      6  10013  3.31628E+03  2.27357E+01 -1.00000E+00  1.61863E-01
      -3    -1     0     0     0   511  0.000000000E+00  0.000000000E+00  2.924127812E+01  2.924127812E+01  0.000000000E+00  0.00000E+00  9.000E+00
       3    -1     0     0   501     0  0.000000000E+00  0.000000000E+00 -1.238021809E+02  1.238021809E+02  0.000000000E+00  0.00000E+00  9.000E+00
      23     2     1     2     0     0 -1.957779710E+01  1.155951092E+01 -8.963263407E+01  1.297797477E+02  9.105965847E+01  0.00000E+00  9.000E+00
      13     1     3     3     0     0 -3.255992366E+01  1.675492940E+00 -1.034077714E+02  1.084257085E+02  1.056583668E-01  0.00000E+00  9.000E+00
     -13     1     3     3     0     0  1.298212656E+01  9.884017976E+00  1.377513733E+01  2.135403928E+01  1.056583668E-01  0.00000E+00  9.000E+00
      21     1     1     2   501   511  1.957779710E+01 -1.155951092E+01 -4.928268758E+00  2.326371133E+01  2.665600750E-07  0.00000E+00  9.000E+00
#pdf  -3  3 0.29962584E-02 0.16375179E-01 0.91059658E+02 0.88593442E+00 0.36512807E+00
#rwgt            1           3   486.44087694348570         54217137    18383874           0
</event>
<event>
      6  10013  3.31628E+03  1.55650E+01 -1.00000E+00  1.75837E-01
       2    -1     0     0   511     0  0.000000000E+00  0.000000000E+00  1.166720695E+02  1.166720695E+02  0.000000000E+00  0.00000E+00  9.000E+00
      -2    -1     0     0     0   501  0.000000000E+00  0.000000000E+00 -6.241995600E+00  6.241995600E+00  0.000000000E+00  0.00000E+00  9.000E+00
      23     2     1     2     0     0 -1.553094759E+01 -1.028658021E+00  6.895523776E+01  7.861473662E+01  3.439743492E+01  0.00000E+00  9.000E+00
      13     1     3     3     0     0 -2.624184929E+00 -8.854962566E+00  6.072264260E+01  6.142106476E+01  1.056583668E-01  0.00000E+00  9.000E+00
     -13     1     3     3     0     0 -1.290676266E+01  7.826304545E+00  8.232595162E+00  1.719367186E+01  1.056583668E-01  0.00000E+00  9.000E+00
      21     1     1     2   511   501  1.553094759E+01  1.028658021E+00  4.147483612E+01  4.429932846E+01  6.743495762E-07  0.00000E+00  9.000E+00
#pdf   2 -2 0.10341997E-01 0.67695687E-03 0.34397435E+02 0.70427108E+00 0.13875694E+01
#rwgt            1           7   934.08658560010770         54217137    18383956           0
</event>
<event>
      6  10013  3.31628E+03  1.23723E+01 -1.00000E+00  1.85591E-01
      21    -1     0     0   511   501  0.000000000E+00  0.000000000E+00  2.374531728E+00  2.374531728E+00  0.000000000E+00  0.00000E+00  9.000E+00
       2    -1     0     0   501     0  0.000000000E+00  0.000000000E+00 -2.258011834E+02  2.258011834E+02  0.000000000E+00  0.00000E+00  9.000E+00
      23     2     1     2     0     0  1.093621723E+00 -1.232392113E+01 -2.011233558E+02  2.026705774E+02  2.171827986E+01  0.00000E+00  9.000E+00
      13     1     3     3     0     0 -3.295024652E+00  1.647182221E+00 -6.308544936E+00  7.306113853E+00  1.056583668E-01  0.00000E+00  9.000E+00
     -13     1     3     3     0     0  4.388646375E+00 -1.397110335E+01 -1.948148108E+02  1.953644636E+02  1.056583668E-01  0.00000E+00  9.000E+00
       2     1     1     2   511     0 -1.093621723E+00  1.232392113E+01 -2.230329586E+01  2.550513765E+01  0.000000000E+00  0.00000E+00  9.000E+00
#pdf  -2  2 0.10341379E-03 0.26988932E-01 0.21718280E+02 0.22459433E+01 0.62570342E+00
#rwgt            1           4   1187.4746386028271         54217137    18384009           0
</event>
<event>
      6  10013  3.31628E+03  1.70028E+01 -1.00000E+00  1.72360E-01
      -3    -1     0     0     0   501  0.000000000E+00  0.000000000E+00  3.072289174E+01  3.072289174E+01  0.000000000E+00  0.00000E+00  9.000E+00
      21    -1     0     0   501   511  0.000000000E+00  0.000000000E+00 -6.519948871E+01  6.519948871E+01  0.000000000E+00  0.00000E+00  9.000E+00
      23     2     1     2     0     0  1.621923409E+01 -5.102245774E+00 -1.761240085E+01  7.197457100E+01  6.768342293E+01  0.00000E+00  9.000E+00
      13     1     3     3     0     0 -3.431383510E-02  2.889323207E+01 -1.845404311E+01  3.428385783E+01  1.056583668E-01  0.00000E+00  9.000E+00
     -13     1     3     3     0     0  1.625354793E+01 -3.399547784E+01  8.416422668E-01  3.769071317E+01  1.056583668E-01  0.00000E+00  9.000E+00
      -3     1     1     2     0   511 -1.621923409E+01  5.102245774E+00 -1.686419613E+01  2.394780945E+01  0.000000000E+00  0.00000E+00  9.000E+00
#pdf  -3  3 0.40556916E-02 0.66836392E-02 0.67683423E+02 0.74437560E+00 0.58765393E+00
#rwgt            1           3   151.46134427590934         54217137    18384048           0
</event>
<event>
      6  10013  3.31628E+03  7.82301E+00 -1.00000E+00  2.08882E-01
      -2    -1     0     0     0   501  0.000000000E+00  0.000000000E+00  1.907707704E+01  1.907707704E+01  0.000000000E+00  0.00000E+00  9.000E+00
      21    -1     0     0   501   511  0.000000000E+00  0.000000000E+00 -4.322048304E+02  4.322048304E+02  0.000000000E+00  0.00000E+00  9.000E+00
      23     2     1     2     0     0 -5.725678628E+00 -5.330677729E+00 -8.985862825E+01  1.279181390E+02  9.070434213E+01  0.00000E+00  9.000E+00
      13     1     3     3     0     0 -1.154643105E+01 -1.638905671E+00 -1.079394831E+02  1.085677174E+02  1.056583668E-01  0.00000E+00  9.000E+00
     -13     1     3     3     0     0  5.820752421E+00 -3.691772058E+00  1.808085484E+01  1.935042158E+01  1.056583668E-01  0.00000E+00  9.000E+00
      -2     1     1     2     0   511  5.725678628E+00  5.330677729E+00 -3.232691251E+02  3.233637685E+02  0.000000000E+00  0.00000E+00  9.000E+00
#pdf  -2  2 0.29168262E-02 0.16690098E-01 0.90704342E+02 0.93068425E+00 0.69627481E+00
#rwgt            1           4   1038.3471157913041         54217137    18384205           0
</event>
<event>
      6  10013  3.31628E+03  3.73757E+00 -1.00000E+00  2.70499E-01
      -2    -1     0     0     0   501  0.000000000E+00  0.000000000E+00  2.582019481E-01  2.582019481E-01  0.000000000E+00  0.00000E+00  9.000E+00
       2    -1     0     0   511     0  0.000000000E+00  0.000000000E+00 -2.114713925E+03  2.114713925E+03  0.000000000E+00  0.00000E+00  9.000E+00
      23     2     1     2     0     0 -2.658190724E+00 -2.627445650E+00 -1.565685331E+03  1.566189007E+03  3.954087470E+01  0.00000E+00  9.000E+00
      13     1     3     3     0     0  4.551679989E+00  1.481872460E+01 -3.345775236E+02  3.349364758E+02  1.056583668E-01  0.00000E+00  9.000E+00
     -13     1     3     3     0     0 -7.209870714E+00 -1.744617025E+01 -1.231107807E+03  1.231252531E+03  1.056583668E-01  0.00000E+00  9.000E+00
      21     1     1     2   511   501  2.658190724E+00  2.627445650E+00 -5.487703925E+02  5.487831203E+02  0.000000000E+00  0.00000E+00  9.000E+00
#pdf  -2  2 0.38572379E-04 0.23984431E+00 0.39540875E+02 0.37161803E+01 0.46653507E+00
#rwgt            1           4   3876.7938741257308         54217137    18384300           0
</event>
<event>
      6  10013  3.31628E+03  1.11557E+00 -1.00000E+00  5.77384E-01
       2    -1     0     0   501     0  0.000000000E+00  0.000000000E+00  1.728321574E+03  1.728321574E+03  0.000000000E+00  0.00000E+00  9.000E+00
      -2    -1     0     0     0   511  0.000000000E+00  0.000000000E+00 -8.148395168E-02  8.148395168E-02  0.000000000E+00  0.00000E+00  9.000E+00
      23     2     1     2     0     0 -6.896338651E-01 -8.768659417E-01  1.667837292E+03  1.667989959E+03  2.253945244E+01  0.00000E+00  9.000E+00
      13     1     3     3     0     0  2.535833968E+00  4.956854871E+00  1.119818808E+02  1.121202643E+02  1.056583668E-01  0.00000E+00  9.000E+00
     -13     1     3     3     0     0 -3.225467834E+00 -5.833720813E+00  1.555855411E+03  1.555869695E+03  1.056583668E-01  0.00000E+00  9.000E+00
      21     1     1     2   501   511  6.896338651E-01  8.768659417E-01  6.040279812E+01  6.041309882E+01  9.536743164E-07  0.00000E+00  9.000E+00
#pdf   2 -2 0.25628838E+00 0.11729273E-04 0.22539452E+02 0.46927834E+00 0.43353404E+01
#rwgt            1           7   3814.9622201404650         54217137    18384418           0
</event>
<event>
      6  10013  3.31628E+03  1.37669E+01 -1.00000E+00  1.80917E-01
       2    -1     0     0   511     0  0.000000000E+00  0.000000000E+00  7.615033664E+02  7.615033664E+02  0.000000000E+00  0.00000E+00  9.000E+00
      -2    -1     0     0     0   501  0.000000000E+00  0.000000000E+00 -8.392444227E-01  8.392444227E-01  0.000000000E+00  0.00000E+00  9.000E+00
      23     2     1     2     0     0  1.151665009E+01  7.542780302E+00  3.910679403E+02  3.924901209E+02  3.041108908E+01  0.00000E+00  9.000E+00
      13     1     3     3     0     0  1.125879362E+01 -4.926542840E+00  3.263479416E+02  3.265792728E+02  1.056583668E-01  0.00000E+00  9.000E+00
     -13     1     3     3     0     0  2.578564653E-01  1.246932314E+01  6.471999868E+01  6.591084814E+01  1.056583668E-01  0.00000E+00  9.000E+00
      21     1     1     2   511   501 -1.151665009E+01 -7.542780302E+00  3.695961817E+02  3.698524900E+02  7.629394531E-06  0.00000E+00  9.000E+00
#pdf   2 -2 0.54909417E-01 0.99662186E-04 0.30411089E+02 0.62852975E+00 0.25343149E+01
#rwgt            1           7   1768.3006033103945         54217137    18384592           0
</event>
<event>
      6  10013  3.31628E+03  1.17242E+01 -1.00000E+00  1.88042E-01
      21    -1     0     0   501   511  0.000000000E+00  0.000000000E+00  2.877524312E+02  2.877524312E+02  0.000000000E+00  0.00000E+00  9.000E+00
      -1    -1     0     0     0   501  0.000000000E+00  0.000000000E+00 -3.200603310E+01  3.200603310E+01  0.000000000E+00  0.00000E+00  9.000E+00
      23     2     1     2     0     0  8.939750099E+00  7.585311120E+00  3.011244826E+01  9.382012006E+01  8.807950562E+01  0.00000E+00  9.000E+00
      13     1     3     3     0     0  7.973223487E+00 -7.887154663E+00  5.952475677E+01  6.057216633E+01  1.056583668E-01  0.00000E+00  9.000E+00
     -13     1     3     3     0     0  9.665266116E-01  1.547246578E+01 -2.941230852E+01  3.324795373E+01  1.056583668E-01  0.00000E+00  9.000E+00
      -1     1     1     2     0   511 -8.939750099E+00 -7.585311120E+00  2.256339499E+02  2.259383443E+02  0.000000000E+00  0.00000E+00  9.000E+00
#pdf   1 -1 0.94499253E-02 0.48577444E-02 0.88079506E+02 0.68573186E+00 0.75332403E+00
#rwgt            1           6   604.05202693755405         54217137    18384627           0
</event>
<event>
      6  10013  3.31628E+03  5.83981E+00 -1.00000E+00  2.27233E-01
       4    -1     0     0   501     0  0.000000000E+00  0.000000000E+00  2.838954995E+01  2.838954995E+01  0.000000000E+00  0.00000E+00  9.000E+00
      21    -1     0     0   511   501  0.000000000E+00  0.000000000E+00 -1.481472024E+01  1.481472024E+01  0.000000000E+00  0.00000E+00  9.000E+00
      23     2     1     2     0     0  4.562636261E+00 -3.644956004E+00  1.659959843E+01  3.662760084E+01  3.212368474E+01  0.00000E+00  9.000E+00
      13     1     3     3     0     0  8.385810967E+00 -3.274914513E-01 -7.950581619E+00  1.156079530E+01  1.056583668E-01  0.00000E+00  9.000E+00
     -13     1     3     3     0     0 -3.823174705E+00 -3.317464552E+00  2.455018005E+01  2.506680554E+01  1.056583668E-01  0.00000E+00  9.000E+00
       4     1     1     2   511     0 -4.562636261E+00  3.644956004E+00 -3.024768725E+00  6.576669352E+00  0.000000000E+00  0.00000E+00  9.000E+00
#pdf   4 -4 0.40283759E-02 0.15157725E-02 0.32123685E+02 0.49321376E+00 0.76999170E+00
#rwgt            1           9   452.63670582973089         54217137    18384740           0
</event>
<event>
      6  10013  3.31628E+03  1.12052E+01 -1.00000E+00  1.90157E-01
      21    -1     0     0   511   501  0.000000000E+00  0.000000000E+00  7.208610758E+00  7.208610758E+00  0.000000000E+00  0.00000E+00  9.000E+00
       1    -1     0     0   501     0  0.000000000E+00  0.000000000E+00 -4.063940017E+02  4.063940017E+02  0.000000000E+00  0.00000E+00  9.000E+00
      23     2     1     2     0     0 -1.020934542E+01 -4.618034807E+00 -3.852702633E+02  3.957367860E+02  8.971550029E+01  0.00000E+00  9.000E+00
      13     1     3     3     0     0  3.350839367E+00  2.206254812E+01 -3.441775085E+02  3.449002068E+02  1.056583668E-01  0.00000E+00  9.000E+00
     -13     1     3     3     0     0 -1.356018479E+01 -2.668058293E+01 -4.109275488E+01  5.083657919E+01  1.056583668E-01  0.00000E+00  9.000E+00
       1     1     1     2   511     0  1.020934542E+01  4.618034807E+00 -1.391512763E+01  1.786582650E+01  0.000000000E+00  0.00000E+00  9.000E+00
#pdf  -1  1 0.79891001E-03 0.59614293E-01 0.89715500E+02 0.15850705E+01 0.42553664E+00
#rwgt            1           5   841.11158834960361         54217137    18384826           0
</event>
<event>
      6  10013  3.31628E+03  1.24885E+01 -1.00000E+00  1.85172E-01
       1    -1     0     0   511     0  0.000000000E+00  0.000000000E+00  6.594135993E+02  6.594135993E+02  0.000000000E+00  0.00000E+00  9.000E+00
      -1    -1     0     0     0   501  0.000000000E+00  0.000000000E+00 -5.006423802E+00  5.006423802E+00  0.000000000E+00  0.00000E+00  9.000E+00
      23     2     1     2     0     0 -1.208966905E+01  3.130923284E+00  4.458376492E+02  4.554769445E+02  9.236923073E+01  0.00000E+00  9.000E+00
      13     1     3     3     0     0 -3.195712319E+01 -9.037042644E+00  4.173787837E+02  4.186979652E+02  1.056583668E-01  0.00000E+00  9.000E+00
     -13     1     3     3     0     0  1.986745414E+01  1.216796593E+01  2.845886554E+01  3.677897933E+01  1.056583668E-01  0.00000E+00  9.000E+00
      21     1     1     2   511   501  1.208966905E+01 -3.130923284E+00  2.085695263E+02  2.089430786E+02  2.697398305E-06  0.00000E+00  9.000E+00
#pdf   1 -1 0.68706770E-01 0.73479876E-03 0.92369231E+02 0.40927946E+00 0.16452573E+01
#rwgt            1           6   1287.0841265428116         54217137    18384917           0
</event>
<event>
      6  10013  3.31628E+03  7.23392E+00 -1.00000E+00  2.13486E-01
      21    -1     0     0   511   501  0.000000000E+00  0.000000000E+00  5.909809743E-01  5.909809743E-01  0.000000000E+00  0.00000E+00  9.000E+00
       1    -1     0     0   501     0  0.000000000E+00  0.000000000E+00 -5.547329014E+02  5.547329014E+02  0.000000000E+00  0.00000E+00  9.000E+00
      23     2     1     2     0     0  7.121904421E+00  1.268099985E+00 -5.122192563E+02  5.127816755E+02  2.289433514E+01  0.00000E+00  9.000E+00
      13     1     3     3     0     0  5.857009317E+00 -6.139272128E-01 -5.076057900E+02  5.076399617E+02  1.056583668E-01  0.00000E+00  9.000E+00
     -13     1     3     3     0     0  1.264895104E+00  1.882027198E+00 -4.613466259E+00  5.141713782E+00  1.056583668E-01  0.00000E+00  9.000E+00
       1     1     1     2   511     0 -7.121904421E+00 -1.268099985E+00 -4.192266411E+01  4.254220688E+01  0.000000000E+00  0.00000E+00  9.000E+00
#pdf  -1  1 0.41252722E-04 0.75182498E-01 0.22894335E+02 0.30213237E+01 0.41250948E+00
#rwgt            1           5   492.05328491101869         54217137    18384984           0
</event>
<event>
      5  10013  3.31628E+03  8.94427E-01 -1.00000E+00  7.47081E-01
       2    -1     0     0   501     0  0.000000000E+00  0.000000000E+00  1.604809613E+03  1.604809613E+03  0.000000000E+00  0.00000E+00  9.000E+00
      -2    -1     0     0     0   501  0.000000000E+00  0.000000000E+00 -1.517045143E-01  1.517045143E-01  0.000000000E+00  0.00000E+00  9.000E+00
      23     2     1     2     0     0  0.000000000E+00  0.000000000E+00  1.604657908E+03  1.604961317E+03  3.120620854E+01  0.00000E+00  9.000E+00
      13     1     3     3     0     0  6.276692369E+00 -6.461425391E+00  1.457540039E+03  1.457567879E+03  1.056583668E-01  0.00000E+00  9.000E+00
     -13     1     3     3     0     0 -6.276692369E+00  6.461425391E+00  1.471178693E+02  1.473934378E+02  1.056583668E-01  0.00000E+00  9.000E+00
#pdf   2 -2 0.24689379E+00 0.23339156E-04 0.31206209E+02 0.46701868E+00 0.40068769E+01
#rwgt            1           7   3043.5953828723441         54217137    18385044           0
</event>
<event>
      6  10013  3.31628E+03  2.30949E+01 -1.00000E+00  1.61334E-01
      -2    -1     0     0     0   501  0.000000000E+00  0.000000000E+00  4.223999596E+01  4.223999596E+01  0.000000000E+00  0.00000E+00  9.000E+00
      21    -1     0     0   501   511  0.000000000E+00  0.000000000E+00 -2.988751202E+01  2.988751202E+01  0.000000000E+00  0.00000E+00  9.000E+00
      23     2     1     2     0     0  1.637287113E+01 -1.628814934E+01  2.942027073E+01  4.341019501E+01  2.203447262E+01  0.00000E+00  9.000E+00
      13     1     3     3     0     0  9.371501991E+00  4.198608599E+00  9.529225293E+00  1.400966317E+01  1.056583668E-01  0.00000E+00  9.000E+00
     -13     1     3     3     0     0  7.001369140E+00 -2.048675793E+01  1.989104544E+01  2.940053184E+01  1.056583668E-01  0.00000E+00  9.000E+00
      -2     1     1     2     0   511 -1.637287113E+01  1.628814934E+01 -1.706778679E+01  2.871731296E+01  0.000000000E+00  0.00000E+00  9.000E+00
#pdf  -2  2 0.38673027E-02 0.74286594E-03 0.22034473E+02 0.67397330E+00 0.12612051E+01
#rwgt            1           4   793.21613432035383         54217137    18385392           0
</event>
<event>
      6  10013  3.31628E+03  1.20133E+01 -1.00000E+00  1.86924E-01
      21    -1     0     0   501   511  0.000000000E+00  0.000000000E+00  3.485995518E+02  3.485995518E+02  0.000000000E+00  0.00000E+00  9.000E+00
      -4    -1     0     0     0   501  0.000000000E+00  0.000000000E+00 -5.042686942E+00  5.042686942E+00  0.000000000E+00  0.00000E+00  9.000E+00
      23     2     1     2     0     0  8.137866992E+00  8.837134326E+00  5.972883558E+01  6.956008509E+01  3.356712402E+01  0.00000E+00  9.000E+00
      13     1     3     3     0     0  9.236878708E+00  6.911482441E-01 -4.954861177E-03  9.263304076E+00  1.056583668E-01  0.00000E+00  9.000E+00
     -13     1     3     3     0     0 -1.099011715E+00  8.145986082E+00  5.973379045E+01  6.029678101E+01  1.056583668E-01  0.00000E+00  9.000E+00
      -4     1     1     2     0   511 -8.137866992E+00 -8.837134326E+00  2.838280293E+02  2.840821536E+02  0.000000000E+00  0.00000E+00  9.000E+00
#pdf   4 -4 0.93636911E-02 0.71202376E-03 0.33567124E+02 0.31355524E+00 0.10583488E+01
#rwgt            1           9   391.29304231042369         54217137    18385432           0
</event>
<event>
      6  10013  3.31628E+03  1.89429E+01 -1.00000E+00  1.68296E-01
      21    -1     0     0   511   501  0.000000000E+00  0.000000000E+00  6.258262038E-01  6.258262038E-01  0.000000000E+00  0.00000E+00  9.000E+00
       2    -1     0     0   501     0  0.000000000E+00  0.000000000E+00 -1.597562553E+03  1.597562553E+03  0.000000000E+00  0.00000E+00  9.000E+00
      23     2     1     2     0     0  9.717883294E+00 -1.626023369E+01 -1.382428429E+03  1.382845299E+03  2.817670386E+01  0.00000E+00  9.000E+00
      13     1     3     3     0     0 -5.676192885E+00  5.903708028E-01 -7.220656868E+02  7.220882460E+02  1.056583668E-01  0.00000E+00  9.000E+00
     -13     1     3     3     0     0  1.539407618E+01 -1.685060449E+01 -6.603627423E+02  6.607570529E+02  1.056583668E-01  0.00000E+00  9.000E+00
       2     1     1     2   511     0 -9.717883294E+00  1.626023369E+01 -2.145082974E+02  2.153430800E+02  0.000000000E+00  0.00000E+00  9.000E+00
#pdf  -2  2 0.26612029E-04 0.17652885E+00 0.28176704E+02 0.37126965E+01 0.56232742E+00
#rwgt            1           4   2469.5486927685083         54217137    18385567           0
</event>
<event>
      6  10013  3.31628E+03  7.83947E+01 -1.00000E+00  1.28752E-01
       2    -1     0     0   501     0  0.000000000E+00  0.000000000E+00  1.066825566E+03  1.066825566E+03  0.000000000E+00  0.00000E+00  9.000E+00
      -2    -1     0     0     0   511  0.000000000E+00  0.000000000E+00 -1.105483573E+01  1.105483573E+01  0.000000000E+00  0.00000E+00  9.000E+00
      23     2     1     2     0     0 -7.777949935E+01 -9.802313568E+00  8.355442303E+02  8.441167451E+02  9.084702903E+01  0.00000E+00  9.000E+00
      13     1     3     3     0     0 -7.099658561E+01 -2.700414786E+01  8.037887714E+02  8.073698901E+02  1.056583668E-01  0.00000E+00  9.000E+00
     -13     1     3     3     0     0 -6.782913740E+00  1.720183430E+01  3.175545894E+01  3.674685508E+01  1.056583668E-01  0.00000E+00  9.000E+00
      21     1     1     2   501   511  7.777949935E+01  9.802313568E+00  2.202264999E+02  2.337636565E+02  5.394796609E-06  0.00000E+00  9.000E+00
#pdf   2 -2 0.97819192E-01 0.49924150E-03 0.90847029E+02 0.60403399E+00 0.18944566E+01
#rwgt            1           7   1312.9766410993318         54217137    18385596           0
</event>
<event>
      6  10013  3.31628E+03  2.24761E+01 -1.00000E+00  1.62253E-01
      21    -1     0     0   511   501  0.000000000E+00  0.000000000E+00  1.544643205E+01  1.544643205E+01  0.000000000E+00  0.00000E+00  9.000E+00
       2    -1     0     0   501     0  0.000000000E+00  0.000000000E+00 -1.881248881E+03  1.881248881E+03  0.000000000E+00  0.00000E+00  9.000E+00
      23     2     1     2     0     0  1.456719568E+01 -1.711635988E+01 -1.871262366E+03  1.873565599E+03  9.011124489E+01  0.00000E+00  9.000E+00
      13     1     3     3     0     0 -1.783049374E+01 -1.078618402E+01 -1.621184654E+03  1.621318588E+03  1.056583668E-01  0.00000E+00  9.000E+00
     -13     1     3     3     0     0  3.239768942E+01 -6.330175860E+00 -2.500777120E+02  2.522470111E+02  1.056583668E-01  0.00000E+00  9.000E+00
       2     1     1     2   511     0 -1.456719568E+01  1.711635988E+01  5.459917678E+00  2.312971393E+01  0.000000000E+00  0.00000E+00  9.000E+00
#pdf  -2  2 0.17190503E-03 0.27950056E+00 0.90111245E+02 0.28027652E+01 0.37474086E+00
#rwgt            1           4   2108.2116575706564         54217137    18385646           0
</event>
<event>
      6  10013  3.31628E+03  1.16468E+01 -1.00000E+00  1.88349E-01
       2    -1     0     0   501     0  0.000000000E+00  0.000000000E+00  5.389418967E+02  5.389418967E+02  0.000000000E+00  0.00000E+00  9.000E+00
      21    -1     0     0   511   501  0.000000000E+00  0.000000000E+00 -5.347522467E+00  5.347522467E+00  0.000000000E+00  0.00000E+00  9.000E+00
      23     2     1     2     0     0 -8.048827733E+00 -8.418149907E+00  4.975813788E+02  5.064399183E+02  9.358692989E+01  0.00000E+00  9.000E+00
      13     1     3     3     0     0  3.073346800E+01 -3.362315935E+01  1.890470939E+02  1.944579075E+02  1.056583668E-01  0.00000E+00  9.000E+00
     -13     1     3     3     0     0 -3.878229573E+01  2.520500945E+01  3.085342848E+02  3.119820108E+02  1.056583668E-01  0.00000E+00  9.000E+00
       2     1     1     2   511     0  8.048827733E+00  8.418149907E+00  3.601299547E+01  3.784950090E+01  0.000000000E+00  0.00000E+00  9.000E+00
#pdf   2 -2 0.76641191E-01 0.67620978E-03 0.93586930E+02 0.61783449E+00 0.16958188E+01
#rwgt            1           7   1392.2863572103629         54217137    18385729           0
</event>
<event>
      6  10013  3.31628E+03  1.61484E+01 -1.00000E+00  1.74372E-01
      -2    -1     0     0     0   501  0.000000000E+00  0.000000000E+00  3.241875669E+00  3.241875669E+00  0.000000000E+00  0.00000E+00  9.000E+00
      21    -1     0     0   501   511  0.000000000E+00  0.000000000E+00 -6.719495161E+02  6.719495161E+02  0.000000000E+00  0.00000E+00  9.000E+00
      23     2     1     2     0     0 -1.414404122E+01 -7.792033486E+00 -5.558305356E+02  5.611650331E+02  7.548404019E+01  0.00000E+00  9.000E+00
      13     1     3     3     0     0  6.075465973E+00 -2.484827328E+01 -6.855565559E+01  7.317265233E+01  1.056583668E-01  0.00000E+00  9.000E+00
     -13     1     3     3     0     0 -2.021950720E+01  1.705623980E+01 -4.872748800E+02  4.879923807E+02  1.056583668E-01  0.00000E+00  9.000E+00
      -2     1     1     2     0   511  1.414404122E+01  7.792033486E+00 -1.128771048E+02  1.140263587E+02  0.000000000E+00  0.00000E+00  9.000E+00
#pdf  -2  2 0.40126642E-03 0.84021563E-01 0.75484040E+02 0.19830106E+01 0.61565117E+00
#rwgt            1           4   3943.7392855663256         54217137    18385814           0
</event>
<event>
      6  10013  3.31628E+03  9.55699E-01 -1.00000E+00  6.88576E-01
      -2    -1     0     0     0   511  0.000000000E+00  0.000000000E+00  2.187766946E-01  2.187766946E-01  0.000000000E+00  0.00000E+00  9.000E+00
       2    -1     0     0   501     0  0.000000000E+00  0.000000000E+00 -6.890553778E+02  6.890553778E+02  0.000000000E+00  0.00000E+00  9.000E+00
      23     2     1     2     0     0 -7.642343600E-01  5.738527080E-01 -6.820503138E+02  6.824209030E+02  2.246652828E+01  0.00000E+00  9.000E+00
      13     1     3     3     0     0 -9.674418484E-01 -7.458416224E+00 -8.932460088E+01  8.964072402E+01  1.056583668E-01  0.00000E+00  9.000E+00
     -13     1     3     3     0     0  2.032074884E-01  8.032268932E+00 -5.927257129E+02  5.927801789E+02  1.056583668E-01  0.00000E+00  9.000E+00
      21     1     1     2   501   511  7.642343600E-01 -5.738527080E-01 -6.786287335E+00  6.853251556E+00  1.460009660E-07  0.00000E+00  9.000E+00
#pdf  -2  2 0.28481102E-04 0.10486449E+00 0.22466528E+02 0.33452146E+01 0.62324802E+00
#rwgt            1           4   2951.2500788213356         54217137    18385882           0
</event>
<event>
      6  10013  3.31628E+03  2.52336E+00 -1.00000E+00  3.21538E-01
       2    -1     0     0   501     0  0.000000000E+00  0.000000000E+00  1.040536132E+03  1.040536132E+03  0.000000000E+00  0.00000E+00  9.000E+00
      -2    -1     0     0     0   511  0.000000000E+00  0.000000000E+00 -1.444795001E-01  1.444795001E-01  0.000000000E+00  0.00000E+00  9.000E+00
      23     2     1     2     0     0  2.453429302E+00 -5.899597648E-01  9.516686174E+02  9.519217003E+02  2.180363976E+01  0.00000E+00  9.000E+00
      13     1     3     3     0     0 -2.510772584E+00  9.464991353E+00  5.840073029E+02  5.840894033E+02  1.056583668E-01  0.00000E+00  9.000E+00
     -13     1     3     3     0     0  4.964201886E+00 -1.005495112E+01  3.676613145E+02  3.678322970E+02  1.056583668E-01  0.00000E+00  9.000E+00
      21     1     1     2   501   511 -2.453429302E+00  5.899597648E-01  8.872303532E+01  8.875891146E+01  1.348699152E-06  0.00000E+00  9.000E+00
#pdf   2 -2 0.14545914E+00 0.19338833E-04 0.21803640E+02 0.60060846E+00 0.37025822E+01
#rwgt            1           7   2838.8436201057029         54217137    18386198           0
</event>
<event>
      6  10013  3.31628E+03  1.12746E+01 -1.00000E+00  1.89866E-01
       1    -1     0     0   511     0  0.000000000E+00  0.000000000E+00  1.558952240E+01  1.558952240E+01  0.000000000E+00  0.00000E+00  9.000E+00
      -1    -1     0     0     0   501  0.000000000E+00  0.000000000E+00 -1.821868784E+02  1.821868784E+02  0.000000000E+00  0.00000E+00  9.000E+00
      23     2     1     2     0     0  1.122498388E+01  1.056051362E+00 -1.571180307E+02  1.830463935E+02  9.323513870E+01  0.00000E+00  9.000E+00
      13     1     3     3     0     0  2.836051995E+01  1.984089400E+01 -1.535118298E+02  1.573654130E+02  1.056583668E-01  0.00000E+00  9.000E+00
     -13     1     3     3     0     0 -1.713553608E+01 -1.878484264E+01 -3.606200931E+00  2.568098048E+01  1.056583668E-01  0.00000E+00  9.000E+00
      21     1     1     2   511   501 -1.122498388E+01 -1.056051362E+00 -9.479325304E+00  1.473000732E+01  1.192092896E-07  0.00000E+00  9.000E+00
#pdf   1 -1 0.19800647E-02 0.25977250E-01 0.93235139E+02 0.11746807E+01 0.32699451E+00
#rwgt            1           6   324.82202907930628         54217137    18386317           0
</event>
<event>
      6  10013  3.31628E+03  1.61302E+01 -1.00000E+00  1.74416E-01
       1    -1     0     0   501     0  0.000000000E+00  0.000000000E+00  4.963926085E+02  4.963926085E+02  0.000000000E+00  0.00000E+00  9.000E+00
      -1    -1     0     0     0   511  0.000000000E+00  0.000000000E+00 -5.977726380E+00  5.977726380E+00  0.000000000E+00  0.00000E+00  9.000E+00
      23     2     1     2     0     0  4.159789361E+00 -1.558456117E+01  4.234001947E+02  4.334417434E+02  9.134460930E+01  0.00000E+00  9.000E+00
      13     1     3     3     0     0  2.714992429E+01 -4.068447917E+01  1.463183528E+02  1.542770779E+02  1.056583668E-01  0.00000E+00  9.000E+00
     -13     1     3     3     0     0 -2.299013493E+01  2.509991800E+01  2.770818418E+02  2.791646654E+02  1.056583668E-01  0.00000E+00  9.000E+00
      21     1     1     2   501   511 -4.159789361E+00  1.558456117E+01  6.701468744E+01  6.892859151E+01  9.536743164E-07  0.00000E+00  9.000E+00
#pdf   1 -1 0.64906707E-01 0.76065822E-03 0.91344609E+02 0.41589022E+00 0.16203413E+01
#rwgt            1           6   730.37288098579143         54217137    18386411           0
</event>
<event>
      6  10013  3.31628E+03  5.27002E+00 -1.00000E+00  2.34508E-01
       2    -1     0     0   511     0  0.000000000E+00  0.000000000E+00  1.541189509E+01  1.541189509E+01  0.000000000E+00  0.00000E+00  9.000E+00
      -2    -1     0     0     0   501  0.000000000E+00  0.000000000E+00 -4.574398950E+01  4.574398950E+01  0.000000000E+00  0.00000E+00  9.000E+00
      23     2     1     2     0     0  3.561447752E-01 -5.257968343E+00 -3.476680637E+01  5.426823329E+01  4.133445595E+01  0.00000E+00  9.000E+00
      13     1     3     3     0     0  4.956247618E+00 -1.484020887E+00  8.847559523E+00  1.024974056E+01  1.056583668E-01  0.00000E+00  9.000E+00
     -13     1     3     3     0     0 -4.600102842E+00 -3.773947457E+00 -4.361436590E+01  4.401849272E+01  1.056583668E-01  0.00000E+00  9.000E+00
      21     1     1     2   511   501 -3.561447752E-01  5.257968343E+00  4.434711966E+00  6.887651299E+00  8.429369702E-08  0.00000E+00  9.000E+00
#pdf   2 -2 0.14880639E-02 0.67938532E-02 0.41334456E+02 0.11696722E+01 0.58455785E+00
#rwgt            1           7   1446.5662762466743         54217137    18386537           0
</event>
<event>
      6  10013  3.31628E+03  3.56480E+00 -1.00000E+00  2.75724E-01
       2    -1     0     0   501     0  0.000000000E+00  0.000000000E+00  2.050356013E+03  2.050356013E+03  0.000000000E+00  0.00000E+00  9.000E+00
      -2    -1     0     0     0   511  0.000000000E+00  0.000000000E+00 -1.092364737E+00  1.092364737E+00  0.000000000E+00  0.00000E+00  9.000E+00
      23     2     1     2     0     0  8.849557690E-01 -3.453206158E+00  2.015520624E+03  2.017517573E+03  8.967199365E+01  0.00000E+00  9.000E+00
      13     1     3     3     0     0 -6.050003662E+00 -4.163717301E+01  6.040683651E+02  6.055318800E+02  1.056583668E-01  0.00000E+00  9.000E+00
     -13     1     3     3     0     0  6.934959431E+00  3.818396685E+01  1.411452258E+03  1.411985693E+03  1.056583668E-01  0.00000E+00  9.000E+00
      21     1     1     2   501   511 -8.849557690E-01  3.453206158E+00  3.374302452E+01  3.393080434E+01  1.430511475E-06  0.00000E+00  9.000E+00
#pdf   2 -2 0.30998886E+00 0.15349027E-03 0.89671994E+02 0.32981417E+00 0.29157697E+01
#rwgt            1           7   1531.8964375665573         54217137    18386704           0
</event>
<event>
      6  10013  3.31628E+03  6.10494E+00 -1.00000E+00  2.24231E-01
       2    -1     0     0   501     0  0.000000000E+00  0.000000000E+00  6.718926043E+02  6.718926043E+02  0.000000000E+00  0.00000E+00  9.000E+00
      -2    -1     0     0     0   511  0.000000000E+00  0.000000000E+00 -6.350241508E-01  6.350241508E-01  0.000000000E+00  0.00000E+00  9.000E+00
      23     2     1     2     0     0  3.288493976E-01 -6.096081491E+00  6.384648969E+02  6.391715132E+02  2.941986287E+01  0.00000E+00  9.000E+00
      13     1     3     3     0     0  2.184074954E+00 -1.297888038E+01  5.934193794E+02  5.935653229E+02  1.056583668E-01  0.00000E+00  9.000E+00
     -13     1     3     3     0     0 -1.855225556E+00  6.882798891E+00  4.504551749E+01  4.560619028E+01  1.056583668E-01  0.00000E+00  9.000E+00
      21     1     1     2   501   511 -3.288493976E-01  6.096081491E+00  3.279268323E+01  3.335611525E+01  9.536743164E-07  0.00000E+00  9.000E+00
#pdf   2 -2 0.96229696E-01 0.53221299E-04 0.29419863E+02 0.62199898E+00 0.30508793E+01
#rwgt            1           7   2132.5580521858346         54217137    18386795           0
</event>
<event>
      6  10013  3.31628E+03  2.90686E+01 -1.00000E+00  1.53962E-01
       2    -1     0     0   501     0  0.000000000E+00  0.000000000E+00  1.193774484E+03  1.193774484E+03  0.000000000E+00  0.00000E+00  9.000E+00
      21    -1     0     0   511   501  0.000000000E+00  0.000000000E+00 -4.470132556E+00  4.470132556E+00  0.000000000E+00  0.00000E+00  9.000E+00
      23     2     1     2     0     0 -1.397583383E+01 -2.548837151E+01  1.106636978E+03  1.110615423E+03  8.930976797E+01  0.00000E+00  9.000E+00
      13     1     3     3     0     0  3.690085197E+01 -2.172451412E+01  4.816245317E+02  4.835243821E+02  1.056583668E-01  0.00000E+00  9.000E+00
     -13     1     3     3     0     0 -5.087668580E+01 -3.763857387E+00  6.250124463E+02  6.270910404E+02  1.056583668E-01  0.00000E+00  9.000E+00
       2     1     1     2   511     0  1.397583383E+01  2.548837151E+01  8.266737331E+01  8.762919390E+01  0.000000000E+00  0.00000E+00  9.000E+00
#pdf   2 -2 0.16218345E+00 0.29100784E-03 0.89309768E+02 0.54062551E+00 0.23098979E+01
#rwgt            1           7   1516.1688681982200         54217137    18386862           0
</event>
<event>
      6  10013  3.31628E+03  1.05686E+01 -1.00000E+00  1.92964E-01
      21    -1     0     0   511   501  0.000000000E+00  0.000000000E+00  6.738415909E+00  6.738415909E+00  0.000000000E+00  0.00000E+00  9.000E+00
       4    -1     0     0   501     0  0.000000000E+00  0.000000000E+00 -3.707565622E+02  3.707565622E+02  0.000000000E+00  0.00000E+00  9.000E+00
      23     2     1     2     0     0 -6.374728111E+00  8.429623516E+00 -3.238229204E+02  3.359335549E+02  8.876020419E+01  0.00000E+00  9.000E+00
      13     1     3     3     0     0 -1.442451098E+01  2.447927571E+01 -2.912379455E+01  4.068793468E+01  1.056583668E-01  0.00000E+00  9.000E+00
     -13     1     3     3     0     0  8.049782865E+00 -1.604965220E+01 -2.946991258E+02  2.952456202E+02  1.056583668E-01  0.00000E+00  9.000E+00
       4     1     1     2   511     0  6.374728111E+00 -8.429623516E+00 -4.019522592E+01  4.156142319E+01  0.000000000E+00  0.00000E+00  9.000E+00
#pdf  -4  4 0.92505288E-03 0.50394521E-01 0.88760204E+02 0.12119330E+01 0.83867557E-01
#rwgt            1           2   108.17641640641553         54217137    18386889           0
</event>
<event>
      6  10013  3.31628E+03  5.74127E+00 -1.00000E+00  2.28406E-01
       2    -1     0     0   511     0  0.000000000E+00  0.000000000E+00  1.161797772E+03  1.161797772E+03  0.000000000E+00  0.00000E+00  9.000E+00
      -2    -1     0     0     0   501  0.000000000E+00  0.000000000E+00 -2.389746551E+00  2.389746551E+00  0.000000000E+00  0.00000E+00  9.000E+00
      23     2     1     2     0     0 -5.704060773E+00  6.525772201E-01  8.357565010E+02  8.404850758E+02  8.884408538E+01  0.00000E+00  9.000E+00
      13     1     3     3     0     0 -4.547883430E+01  1.161287699E+01  3.870291654E+02  3.898650655E+02  1.056583668E-01  0.00000E+00  9.000E+00
     -13     1     3     3     0     0  3.977477353E+01 -1.096029977E+01  4.487273357E+02  4.506200103E+02  1.056583668E-01  0.00000E+00  9.000E+00
      21     1     1     2   511   501  5.704060773E+00 -6.525772201E-01  3.236515241E+02  3.237024424E+02  5.394796609E-06  0.00000E+00  9.000E+00
#pdf   2 -2 0.12867327E+00 0.36297941E-03 0.88844085E+02 0.57771631E+00 0.21263021E+01
#rwgt            1           7   1666.8248941847805         54217137    18386991           0
</event>
<event>
      6  10013  3.31628E+03  5.62905E+00 -1.00000E+00  2.29783E-01
      -1    -1     0     0     0   501  0.000000000E+00  0.000000000E+00  3.145528891E+00  3.145528891E+00  0.000000000E+00  0.00000E+00  9.000E+00
       1    -1     0     0   511     0  0.000000000E+00  0.000000000E+00 -1.220277592E+03  1.220277592E+03  0.000000000E+00  0.00000E+00  9.000E+00
      23     2     1     2     0     0 -3.667337798E+00  4.270465257E+00 -6.677590529E+02  6.740212729E+02  9.149228021E+01  0.00000E+00  9.000E+00
      13     1     3     3     0     0  1.988259471E+01  4.433974812E+00 -3.270432825E+01  3.853001369E+01  1.056583668E-01  0.00000E+00  9.000E+00
     -13     1     3     3     0     0 -2.354993251E+01 -1.635095551E-01 -6.350547247E+02  6.354912592E+02  1.056583668E-01  0.00000E+00  9.000E+00
      21     1     1     2   511   501  3.667337798E+00 -4.270465257E+00 -5.493730106E+02  5.494018484E+02  1.321449896E-05  0.00000E+00  9.000E+00
#pdf  -1  1 0.48080010E-03 0.10301908E+00 0.91492280E+02 0.19302520E+01 0.35682133E+00
#rwgt            1           5   863.25925300119479         54217137    18387115           0
</event>
<event>
      6  10013  3.31628E+03  5.66984E+00 -1.00000E+00  2.29277E-01
      -2    -1     0     0     0   511  0.000000000E+00  0.000000000E+00  1.187674994E+01  1.187674994E+01  0.000000000E+00  0.00000E+00  9.000E+00
       2    -1     0     0   501     0  0.000000000E+00  0.000000000E+00 -1.173482914E+02  1.173482914E+02  0.000000000E+00  0.00000E+00  9.000E+00
      23     2     1     2     0     0 -4.668907553E+00 -3.216895835E+00 -9.978617004E+01  1.211956849E+02  6.854901308E+01  0.00000E+00  9.000E+00
      13     1     3     3     0     0 -2.996471422E+00  1.678512261E+01  2.254836042E+00  1.719926252E+01  1.056583668E-01  0.00000E+00  9.000E+00
     -13     1     3     3     0     0 -1.672436131E+00 -2.000201845E+01 -1.020410061E+02  1.039964224E+02  1.056583668E-01  0.00000E+00  9.000E+00
      21     1     1     2   501   511  4.668907553E+00  3.216895835E+00 -5.685371473E+00  8.029356471E+00  2.064765462E-07  0.00000E+00  9.000E+00
#pdf  -2  2 0.16412811E-02 0.16940754E-01 0.68549013E+02 0.11366731E+01 0.68587161E+00
#rwgt            1           4   1378.8486406548498         54217137    18387241           0
</event>
<event>
      6  10013  3.31628E+03  3.94061E+00 -1.00000E+00  2.64901E-01
      -2    -1     0     0     0   501  0.000000000E+00  0.000000000E+00  6.106498282E+00  6.106498282E+00  0.000000000E+00  0.00000E+00  9.000E+00
      21    -1     0     0   501   511  0.000000000E+00  0.000000000E+00 -4.382625281E+01  4.382625281E+01  0.000000000E+00  0.00000E+00  9.000E+00
      23     2     1     2     0     0 -3.005961370E+00  2.548061054E+00 -3.012561972E+01  4.137709201E+01  2.808882982E+01  0.00000E+00  9.000E+00
      13     1     3     3     0     0 -1.416231611E+01  1.676178103E+00 -2.560260616E+01  2.930674626E+01  1.056583668E-01  0.00000E+00  9.000E+00
     -13     1     3     3     0     0  1.115635474E+01  8.718829517E-01 -4.523013562E+00  1.207034575E+01  1.056583668E-01  0.00000E+00  9.000E+00
      -2     1     1     2     0   511  3.005961370E+00 -2.548061054E+00 -7.594134810E+00  8.555659087E+00  0.000000000E+00  0.00000E+00  9.000E+00
#pdf  -2  2 0.85710438E-03 0.54468683E-02 0.28088830E+02 0.12198670E+01 0.77757792E+00
#rwgt            1           4   813.58232517580211         54217137    18387430           0
</event>
<event>
      6  10013  3.31628E+03  2.65709E+01 -1.00000E+00  1.56757E-01
       2    -1     0     0   501     0  0.000000000E+00  0.000000000E+00  1.289422935E+02  1.289422935E+02  0.000000000E+00  0.00000E+00  9.000E+00
      21    -1     0     0   511   501  0.000000000E+00  0.000000000E+00 -3.950126489E+01  3.950126489E+01  0.000000000E+00  0.00000E+00  9.000E+00
      23     2     1     2     0     0 -1.057450365E+01  2.437603492E+01  1.015700953E+02  1.392352469E+02  9.145468016E+01  0.00000E+00  9.000E+00
      13     1     3     3     0     0 -1.580319912E+01  3.684323772E+01  1.140162597E+02  1.208589422E+02  1.056583668E-01  0.00000E+00  9.000E+00
     -13     1     3     3     0     0  5.228695473E+00 -1.246720281E+01 -1.244616443E+01  1.837630471E+01  1.056583668E-01  0.00000E+00  9.000E+00
       2     1     1     2   511     0  1.057450365E+01 -2.437603492E+01 -1.212906661E+01  2.920831153E+01  0.000000000E+00  0.00000E+00  9.000E+00
#pdf   2 -2 0.17787945E-01 0.27822707E-02 0.91454680E+02 0.69025899E+00 0.95082581E+00
#rwgt            1           7   767.34926838458864         54217137    18387489           0
</event>
<event>
      6  10013  3.31628E+03  9.33184E+00 -1.00000E+00  1.99234E-01
      -3    -1     0     0     0   511  0.000000000E+00  0.000000000E+00  2.046716562E+01  2.046716562E+01  0.000000000E+00  0.00000E+00  9.000E+00
       3    -1     0     0   501     0  0.000000000E+00  0.000000000E+00 -1.833728548E+02  1.833728548E+02  0.000000000E+00  0.00000E+00  9.000E+00
      23     2     1     2     0     0 -4.609084674E+00  8.114160329E+00 -1.698339806E+02  1.922174354E+02  8.953702167E+01  0.00000E+00  9.000E+00
      13     1     3     3     0     0  5.935946797E+00 -2.121716235E+01 -1.569520678E+02  1.584909025E+02  1.056583668E-01  0.00000E+00  9.000E+00
     -13     1     3     3     0     0 -1.054503147E+01  2.933132268E+01 -1.288191284E+01  3.372653289E+01  1.056583668E-01  0.00000E+00  9.000E+00
      21     1     1     2   501   511  4.609084674E+00 -8.114160329E+00  6.928291444E+00  1.162258498E+01  1.192092896E-07  0.00000E+00  9.000E+00
#pdf  -3  3 0.17125282E-02 0.27700069E-01 0.89537022E+02 0.11261608E+01 0.25288704E+00
#rwgt            1           3   415.29594025947472         54217137    18387579           0
</event>
<event>
      6  10013  3.31628E+03  3.37373E+01 -1.00000E+00  1.49547E-01
       2    -1     0     0   501     0  0.000000000E+00  0.000000000E+00  2.139063135E+01  2.139063135E+01  0.000000000E+00  0.00000E+00  9.000E+00
      -2    -1     0     0     0   511  0.000000000E+00  0.000000000E+00 -1.533810000E+02  1.533810000E+02  0.000000000E+00  0.00000E+00  9.000E+00
      23     2     1     2     0     0  3.293451287E+01  7.315817895E+00 -8.727334562E+01  1.187554241E+02  7.313009339E+01  0.00000E+00  9.000E+00
      13     1     3     3     0     0 -2.272627398E+01 -5.543020914E+00 -2.648322960E+01  3.533526884E+01  1.056583668E-01  0.00000E+00  9.000E+00
     -13     1     3     3     0     0  5.566078686E+01  1.285883881E+01 -6.079011602E+01  8.342015523E+01  1.056583668E-01  0.00000E+00  9.000E+00
      21     1     1     2   501   511 -3.293451287E+01 -7.315817895E+00 -4.471702307E+01  5.601620732E+01  8.259061849E-07  0.00000E+00  9.000E+00
#pdf   2 -2 0.21989763E-02 0.14390802E-01 0.73130093E+02 0.11309505E+01 0.42346528E+00
#rwgt            1           7   350.46566322808934         54217137    18387676           0
</event>
<event>
      6  10013  3.31628E+03  9.62008E+00 -1.00000E+00  1.97662E-01
       4    -1     0     0   501     0  0.000000000E+00  0.000000000E+00  1.532734308E+02  1.532734308E+02  0.000000000E+00  0.00000E+00  9.000E+00
      21    -1     0     0   511   501  0.000000000E+00  0.000000000E+00 -1.654038426E+01  1.654038426E+01  0.000000000E+00  0.00000E+00  9.000E+00
      23     2     1     2     0     0  8.627025286E+00 -4.256808147E+00  1.242226950E+02  1.540323425E+02  9.056565904E+01  0.00000E+00  9.000E+00
      13     1     3     3     0     0 -2.755105191E+01 -3.428371749E+00  1.126774754E+02  1.160475714E+02  1.056583668E-01  0.00000E+00  9.000E+00
     -13     1     3     3     0     0  3.617807720E+01 -8.284363983E-01  1.154521958E+01  3.798477110E+01  1.056583668E-01  0.00000E+00  9.000E+00
       4     1     1     2   511     0 -8.627025286E+00  4.256808147E+00  1.251035157E+01  1.578147260E+01  0.000000000E+00  0.00000E+00  9.000E+00
#pdf   4 -4 0.21284492E-01 0.22802218E-02 0.90565659E+02 0.19882337E+00 0.80327220E+00
#rwgt            1           9   185.56246595323847         54217137    18387721           0
</event>
<event>
      6  10013  3.31628E+03  3.03387E+00 -1.00000E+00  2.95259E-01
       2    -1     0     0   511     0  0.000000000E+00  0.000000000E+00  2.805607779E+02  2.805607779E+02  0.000000000E+00  0.00000E+00  9.000E+00
      -2    -1     0     0     0   501  0.000000000E+00  0.000000000E+00 -7.112352466E+00  7.112352466E+00  0.000000000E+00  0.00000E+00  9.000E+00
      23     2     1     2     0     0 -1.882264532E+00  2.379376386E+00  2.609732566E+02  2.748343536E+02  8.612593628E+01  0.00000E+00  9.000E+00
      13     1     3     3     0     0 -2.012717486E+01 -1.516049710E+01  1.904494992E+01  3.158583735E+01  1.056583668E-01  0.00000E+00  9.000E+00
     -13     1     3     3     0     0  1.824491032E+01  1.753987348E+01  2.419283067E+02  2.432485163E+02  1.056583668E-01  0.00000E+00  9.000E+00
      21     1     1     2   511   501  1.882264532E+00 -2.379376386E+00  1.247516883E+01  1.283877677E+01  0.000000000E+00  0.00000E+00  9.000E+00
#pdf   2 -2 0.41190422E-01 0.10655773E-02 0.86125936E+02 0.63905801E+00 0.13997660E+01
#rwgt            1           7   1137.0785022242430         54217137    18387887           0
</event>
<event>
      6  10013  3.31628E+03  4.60897E+00 -1.00000E+00  2.49668E-01
      -2    -1     0     0     0   501  0.000000000E+00  0.000000000E+00  1.375922319E+00  1.375922319E+00  0.000000000E+00  0.00000E+00  9.000E+00
       2    -1     0     0   511     0  0.000000000E+00  0.000000000E+00 -1.788133498E+03  1.788133498E+03  0.000000000E+00  0.00000E+00  9.000E+00
      23     2     1     2     0     0  2.238811474E+00 -4.028687616E+00 -1.606300761E+03  1.608993758E+03  9.293833387E+01  0.00000E+00  9.000E+00
      13     1     3     3     0     0  2.136168243E+01  3.716299641E+01 -1.036535653E+03  1.037421603E+03  1.056583668E-01  0.00000E+00  9.000E+00
     -13     1     3     3     0     0 -1.912287096E+01 -4.119168403E+01 -5.697651080E+02  5.715721551E+02  1.056583668E-01  0.00000E+00  9.000E+00
      21     1     1     2   511   501 -2.238811474E+00  4.028687616E+00 -1.804568144E+02  1.805156626E+02  2.697398305E-06  0.00000E+00  9.000E+00
#pdf  -2  2 0.20689931E-03 0.24702677E+00 0.92938334E+02 0.26386150E+01 0.42208513E+00
#rwgt            1           4   1607.2882772248265         54217137    18387984           0
</event>
<event>
      6  10013  3.31628E+03  2.98677E+00 -1.00000E+00  2.97312E-01
      21    -1     0     0   511   501  0.000000000E+00  0.000000000E+00  6.089030708E+01  6.089030708E+01  0.000000000E+00  0.00000E+00  9.000E+00
       4    -1     0     0   501     0  0.000000000E+00  0.000000000E+00 -6.774454313E+01  6.774454313E+01  0.000000000E+00  0.00000E+00  9.000E+00
      23     2     1     2     0     0 -1.478815404E+00  2.594977916E+00 -3.790265777E+01  9.744309975E+01  8.971970473E+01  0.00000E+00  9.000E+00
      13     1     3     3     0     0 -1.865792106E+01 -1.736809557E+00 -6.355902841E+01  6.626383465E+01  1.056583668E-01  0.00000E+00  9.000E+00
     -13     1     3     3     0     0  1.717910566E+01  4.331787473E+00  2.565637064E+01  3.117926510E+01  1.056583668E-01  0.00000E+00  9.000E+00
       4     1     1     2   511     0  1.478815404E+00 -2.594977916E+00  3.104842173E+01  3.119175047E+01  0.000000000E+00  0.00000E+00  9.000E+00
#pdf  -4  4 0.45774982E-02 0.10405448E-01 0.89719705E+02 0.55893156E+00 0.33978259E+00
#rwgt            1           2   180.36972726464057         54217137    18388204           0
</event>
<event>
      6  10013  3.31628E+03  4.07184E+00 -1.00000E+00  2.61555E-01
      21    -1     0     0   501   511  0.000000000E+00  0.000000000E+00  3.166682745E+01  3.166682745E+01  0.000000000E+00  0.00000E+00  9.000E+00
      -4    -1     0     0     0   501  0.000000000E+00  0.000000000E+00 -6.841081736E+00  6.841081736E+00  0.000000000E+00  0.00000E+00  9.000E+00
      23     2     1     2     0     0 -3.615403520E+00  1.873152312E+00  1.606440415E+01  2.884659726E+01  2.361104086E+01  0.00000E+00  9.000E+00
      13     1     3     3     0     0 -4.711530502E+00 -3.104994639E+00 -4.774948220E+00  7.392618317E+00  1.056583668E-01  0.00000E+00  9.000E+00
     -13     1     3     3     0     0  1.096126982E+00  4.978146951E+00  2.083935237E+01  2.145397894E+01  1.056583668E-01  0.00000E+00  9.000E+00
      -4     1     1     2     0   511  3.615403520E+00 -1.873152312E+00  8.761341565E+00  9.661311930E+00  0.000000000E+00  0.00000E+00  9.000E+00
#pdf   4 -4 0.34044383E-02 0.96894271E-03 0.23611041E+02 0.49543854E+00 0.84116933E+00
#rwgt            1           9   319.74503751120187         54217137    18388351           0
</event>
<event>
      6  10013  3.31628E+03  4.79706E+00 -1.00000E+00  2.46069E-01
       2    -1     0     0   501     0  0.000000000E+00  0.000000000E+00  1.626237651E+02  1.626237651E+02  0.000000000E+00  0.00000E+00  9.000E+00
      -2    -1     0     0     0   511  0.000000000E+00  0.000000000E+00 -1.610977622E+01  1.610977622E+01  0.000000000E+00  0.00000E+00  9.000E+00
      23     2     1     2     0     0 -9.960050730E-01 -4.692522275E+00  1.481581832E+02  1.736625289E+02  9.046996691E+01  0.00000E+00  9.000E+00
      13     1     3     3     0     0  2.137716627E+01 -1.154198744E+01  6.425858738E-01  2.430277334E+01  1.056583668E-01  0.00000E+00  9.000E+00
     -13     1     3     3     0     0 -2.237317135E+01  6.849465165E+00  1.475155973E+02  1.493597556E+02  1.056583668E-01  0.00000E+00  9.000E+00
      21     1     1     2   501   511  9.960050730E-01  4.692522275E+00 -1.644194348E+00  5.071012370E+00  2.107342426E-08  0.00000E+00  9.000E+00
#pdf   2 -2 0.24720712E-01 0.19591206E-02 0.90469967E+02 0.66383337E+00 0.11016083E+01
#rwgt            1           7   701.09074773845214         54217137    18388462           0
</event>
<event>
      6  10013  3.31628E+03  1.32317E+01 -1.00000E+00  1.82624E-01
      -2    -1     0     0     0   501  0.000000000E+00  0.000000000E+00  3.155078660E+00  3.155078660E+00  0.000000000E+00  0.00000E+00  9.000E+00
       2    -1     0     0   511     0  0.000000000E+00  0.000000000E+00 -1.223152407E+03  1.223152407E+03  0.000000000E+00  0.00000E+00  9.000E+00
      23     2     1     2     0     0 -1.301728619E+01  2.372237067E+00 -6.887469235E+02  6.948923279E+02  9.125757779E+01  0.00000E+00  9.000E+00
      13     1     3     3     0     0  1.784479780E+01  7.639204067E+00 -3.219399624E+01  3.759333458E+01  1.056583668E-01  0.00000E+00  9.000E+00
     -13     1     3     3     0     0 -3.086208399E+01 -5.266967000E+00 -6.565529273E+02  6.572989933E+02  1.056583668E-01  0.00000E+00  9.000E+00
      21     1     1     2   511   501  1.301728619E+01 -2.372237067E+00 -5.312504049E+02  5.314151579E+02  7.629394531E-06  0.00000E+00  9.000E+00
#pdf  -2  2 0.46783142E-03 0.10533235E+00 0.91257578E+02 0.19433135E+01 0.59813718E+00
#rwgt            1           4   1131.4235286356181         54217137    18388560           0
</event>
<event>
      6  10013  3.31628E+03  1.87115E+00 -1.00000E+00  3.76895E-01
       2    -1     0     0   501     0  0.000000000E+00  0.000000000E+00  1.201132632E+00  1.201132632E+00  0.000000000E+00  0.00000E+00  9.000E+00
      -2    -1     0     0     0   511  0.000000000E+00  0.000000000E+00 -2.471499651E+02  2.471499651E+02  0.000000000E+00  0.00000E+00  9.000E+00
      23     2     1     2     0     0 -9.291571077E-01  1.624157086E+00 -1.040808849E+02  1.064708110E+02  2.235401019E+01  0.00000E+00  9.000E+00
      13     1     3     3     0     0  2.037025710E+00 -8.297061519E+00 -7.708116467E+01  7.755325792E+01  1.056583668E-01  0.00000E+00  9.000E+00
     -13     1     3     3     0     0 -2.966182817E+00  9.921218606E+00 -2.699972020E+01  2.891755304E+01  1.056583668E-01  0.00000E+00  9.000E+00
      21     1     1     2   501   511  9.291571077E-01 -1.624157086E+00 -1.418679476E+02  1.418802867E+02  1.907348633E-06  0.00000E+00  9.000E+00
#pdf   2 -2 0.18319978E-03 0.16139840E-01 0.22354010E+02 0.19247194E+01 0.36529130E+00
#rwgt            1           7   817.84817255260407         54217137    18388629           0
</event>
<event>
      6  10013  3.31628E+03  1.04367E+01 -1.00000E+00  1.93578E-01
       2    -1     0     0   501     0  0.000000000E+00  0.000000000E+00  4.667339564E+03  4.667339564E+03  0.000000000E+00  0.00000E+00  9.000E+00
      21    -1     0     0   511   501  0.000000000E+00  0.000000000E+00 -1.375316168E-01  1.375316168E-01  0.000000000E+00  0.00000E+00  9.000E+00
      23     2     1     2     0     0 -6.855954308E+00 -7.868987414E+00  4.099234265E+03  4.099413446E+03  3.687977709E+01  0.00000E+00  9.000E+00
      13     1     3     3     0     0 -2.087619502E+01 -9.406578547E-01  1.704224878E+03  1.704352999E+03  1.056583668E-01  0.00000E+00  9.000E+00
     -13     1     3     3     0     0  1.402024072E+01 -6.928329560E+00  2.395009387E+03  2.395060447E+03  1.056583668E-01  0.00000E+00  9.000E+00
       2     1     1     2   511     0  6.855954308E+00  7.868987414E+00  5.679677671E+02  5.680636492E+02  0.000000000E+00  0.00000E+00  9.000E+00
#pdf   2 -2 0.60683399E+00 0.13262334E-04 0.36879777E+02 0.52555039E-01 0.50477471E+01
#rwgt            1           7   4079.2988779513889         54217137    18388728           0
</event>
<event>
      6  10013  3.31628E+03  3.35355E+01 -1.00000E+00  1.49720E-01
       1    -1     0     0   501     0  0.000000000E+00  0.000000000E+00  1.600474402E+02  1.600474402E+02  0.000000000E+00  0.00000E+00  9.000E+00
      21    -1     0     0   511   501  0.000000000E+00  0.000000000E+00 -2.917364632E+01  2.917364632E+01  0.000000000E+00  0.00000E+00  9.000E+00
      23     2     1     2     0     0  9.340957419E+00 -3.220837659E+01  7.242388103E+01  1.218339563E+02  9.205249239E+01  0.00000E+00  9.000E+00
      13     1     3     3     0     0 -3.603048485E+01  7.982144146E+00  3.317517519E+01  4.962372291E+01  1.056583668E-01  0.00000E+00  9.000E+00
     -13     1     3     3     0     0  4.537144227E+01 -4.019052074E+01  3.924870584E+01  7.221023338E+01  1.056583668E-01  0.00000E+00  9.000E+00
       1     1     1     2   511     0 -9.340957419E+00  3.220837659E+01  5.844991289E+01  6.738713026E+01  0.000000000E+00  0.00000E+00  9.000E+00
#pdf   1 -1 0.14040214E-01 0.35711713E-02 0.92052492E+02 0.61151691E+00 0.86577945E+00
#rwgt            1           6   600.59054987522552         54217137    18388843           0
</event>
<event>
      6  10013  3.31628E+03  2.69233E+00 -1.00000E+00  3.11742E-01
       2    -1     0     0   501     0  0.000000000E+00  0.000000000E+00  9.881633469E+02  9.881633469E+02  0.000000000E+00  0.00000E+00  9.000E+00
      -2    -1     0     0     0   511  0.000000000E+00  0.000000000E+00 -3.894613381E-01  3.894613381E-01  0.000000000E+00  0.00000E+00  9.000E+00
      23     2     1     2     0     0  2.526891482E+00  9.292156781E-01  9.221926555E+02  9.229163370E+02  3.644204427E+01  0.00000E+00  9.000E+00
      13     1     3     3     0     0  1.872877953E+01 -2.526486789E+00  6.005874372E+02  6.008847070E+02  1.056583668E-01  0.00000E+00  9.000E+00
     -13     1     3     3     0     0 -1.620188805E+01  3.455702467E+00  3.216052183E+02  3.220316299E+02  1.056583668E-01  0.00000E+00  9.000E+00
      21     1     1     2   501   511 -2.526891482E+00 -9.292156781E-01  6.558123003E+01  6.563647122E+01  1.348699152E-06  0.00000E+00  9.000E+00
#pdf   2 -2 0.14154569E+00 0.55516502E-04 0.36442044E+02 0.58846523E+00 0.32277149E+01
#rwgt            1           7   2300.7599836076129         54217137    18388884           0
</event>
<event>
      6  10013  3.31628E+03  1.33119E+00 -1.00000E+00  4.89287E-01
       2    -1     0     0   501     0  0.000000000E+00  0.000000000E+00  1.364821257E+01  1.364821257E+01  0.000000000E+00  0.00000E+00  9.000E+00
      -2    -1     0     0     0   511  0.000000000E+00  0.000000000E+00 -2.101736233E+01  2.101736233E+01  0.000000000E+00  0.00000E+00  9.000E+00
      23     2     1     2     0     0 -3.012174051E-02  1.330851345E+00 -6.066795554E+00  3.280326476E+01  3.220987578E+01  0.00000E+00  9.000E+00
      13     1     3     3     0     0  1.030068051E+01 -2.021011925E+00  9.273524517E+00  1.400706711E+01  1.056583668E-01  0.00000E+00  9.000E+00
     -13     1     3     3     0     0 -1.033080225E+01  3.351863270E+00 -1.534032007E+01  1.879619765E+01  1.056583668E-01  0.00000E+00  9.000E+00
      21     1     1     2   501   511  3.012174051E-02 -1.330851345E+00 -1.302354203E+00  1.862310149E+00  3.332000937E-08  0.00000E+00  9.000E+00
#pdf   2 -2 0.20548973E-02 0.29874544E-02 0.32209876E+02 0.10168174E+01 0.79438523E+00
#rwgt            1           7   872.57557685548420         54217137    18388978           0
</event>
<event>
      6  10013  3.31628E+03  6.87132E+01 -1.00000E+00  1.31604E-01
       1    -1     0     0   511     0  0.000000000E+00  0.000000000E+00  1.024674428E+02  1.024674428E+02  0.000000000E+00  0.00000E+00  9.000E+00
      -1    -1     0     0     0   501  0.000000000E+00  0.000000000E+00 -1.171902543E+02  1.171902543E+02  0.000000000E+00  0.00000E+00  9.000E+00
      23     2     1     2     0     0  6.705317673E+01  1.501263024E+01 -6.991338600E+01  1.315242353E+02  8.768828509E+01  0.00000E+00  9.000E+00
      13     1     3     3     0     0  4.323075271E+01  4.147560228E+01 -8.464078860E+00  6.050434165E+01  1.056583668E-01  0.00000E+00  9.000E+00
     -13     1     3     3     0     0  2.382242402E+01 -2.646297205E+01 -6.144930714E+01  7.101989360E+01  1.056583668E-01  0.00000E+00  9.000E+00
      21     1     1     2   511   501 -6.705317673E+01 -1.501263024E+01  5.519057448E+01  8.813346179E+01  1.507891493E-06  0.00000E+00  9.000E+00
#pdf   1 -1 0.37304097E-02 0.12196632E-01 0.87688285E+02 0.93106215E+00 0.48941521E+00
#rwgt            1           6   566.93256725665310         54217137    18389109           0
</event>
<event>
      6  10013  3.31628E+03  1.45063E+01 -1.00000E+00  1.78716E-01
       2    -1     0     0   501     0  0.000000000E+00  0.000000000E+00  6.579454148E+02  6.579454148E+02  0.000000000E+00  0.00000E+00  9.000E+00
      21    -1     0     0   511   501  0.000000000E+00  0.000000000E+00 -6.738832868E-01  6.738832868E-01  0.000000000E+00  0.00000E+00  9.000E+00
      23     2     1     2     0     0 -1.075530035E+01 -9.734219381E+00  5.097267471E+02  5.103631180E+02  2.094574041E+01  0.00000E+00  9.000E+00
      13     1     3     3     0     0  3.296043093E+00 -1.042289681E+01  1.752652963E+02  1.756059109E+02  1.056583668E-01  0.00000E+00  9.000E+00
     -13     1     3     3     0     0 -1.405134344E+01  6.886774313E-01  3.344614507E+02  3.347572071E+02  1.056583668E-01  0.00000E+00  9.000E+00
       2     1     1     2   511     0  1.075530035E+01  9.734219381E+00  1.475447845E+02  1.482561801E+02  0.000000000E+00  0.00000E+00  9.000E+00
#pdf   2 -2 0.64508421E-01 0.40242812E-04 0.20945740E+02 0.62825654E+00 0.29419081E+01
#rwgt            1           7   1711.7229515480451         54217137    18389190           0
</event>
<event>
      6  10013  3.31628E+03  4.32342E+01 -1.00000E+00  1.42746E-01
      -4    -1     0     0     0   511  0.000000000E+00  0.000000000E+00  4.421145784E+01  4.421145784E+01  0.000000000E+00  0.00000E+00  9.000E+00
       4    -1     0     0   501     0  0.000000000E+00  0.000000000E+00 -1.294766117E+02  1.294766117E+02  0.000000000E+00  0.00000E+00  9.000E+00
      23     2     1     2     0     0 -4.061292719E+01 -1.482505971E+01 -6.261365063E+01  1.248794345E+02  9.902126880E+01  0.00000E+00  9.000E+00
      13     1     3     3     0     0 -8.464331650E+00  6.236226979E+00 -8.141687477E+01  8.209296010E+01  1.056583668E-01  0.00000E+00  9.000E+00
     -13     1     3     3     0     0 -3.214859555E+01 -2.106128668E+01  1.880322415E+01  4.278647443E+01  1.056583668E-01  0.00000E+00  9.000E+00
      21     1     1     2   501   511  4.061292719E+01  1.482505971E+01 -2.265150320E+01  4.880863497E+01  4.768371582E-07  0.00000E+00  9.000E+00
#pdf  -4  4 0.43895221E-02 0.13217613E-01 0.99021269E+02 0.58055782E+00 0.29088381E+00
#rwgt            1           2   244.08467545555462         54217137    18389251           0
</event>
<event>
      6  10013  3.31628E+03  6.16882E+00 -1.00000E+00  2.23539E-01
      21    -1     0     0   511   501  0.000000000E+00  0.000000000E+00  3.703073610E+02  3.703073610E+02  0.000000000E+00  0.00000E+00  9.000E+00
       4    -1     0     0   501     0  0.000000000E+00  0.000000000E+00 -8.084013159E-01  8.084013159E-01  0.000000000E+00  0.00000E+00  9.000E+00
      23     2     1     2     0     0 -2.043375682E+00  5.820566221E+00  2.909794072E+02  2.923542584E+02  2.763951194E+01  0.00000E+00  9.000E+00
      13     1     3     3     0     0 -3.834626987E+00  5.647972404E+00  2.903716649E+02  2.904519219E+02  1.056583668E-01  0.00000E+00  9.000E+00
     -13     1     3     3     0     0  1.791251305E+00  1.725938174E-01  6.077422265E-01  1.902336502E+00  1.056583668E-01  0.00000E+00  9.000E+00
       4     1     1     2   511     0  2.043375682E+00 -5.820566221E+00  7.851955254E+01  7.876150396E+01  0.000000000E+00  0.00000E+00  9.000E+00
#pdf  -4  4 0.43794310E-01 0.10321822E-03 0.27639512E+02 0.88850667E-01 0.19686956E+01
#rwgt            1           2   224.03572888632354         54217137    18389284           0
</event>
<event>
      6  10013  3.31628E+03  4.43285E+00 -1.00000E+00  2.53281E-01
       2    -1     0     0   501     0  0.000000000E+00  0.000000000E+00  2.619749236E+01  2.619749236E+01  0.000000000E+00  0.00000E+00  9.000E+00
      21    -1     0     0   511   501  0.000000000E+00  0.000000000E+00 -6.533301124E+00  6.533301124E+00  0.000000000E+00  0.00000E+00  9.000E+00
      23     2     1     2     0     0 -3.330586483E+00 -2.925294640E+00  1.682356844E+01  2.746588200E+01  2.125304835E+01  0.00000E+00  9.000E+00
      13     1     3     3     0     0  9.048975856E+00 -1.716971903E+00  8.178139967E+00  1.231767403E+01  1.056583668E-01  0.00000E+00  9.000E+00
     -13     1     3     3     0     0 -1.237956234E+01 -1.208322738E+00  8.645428475E+00  1.514820797E+01  1.056583668E-01  0.00000E+00  9.000E+00
       2     1     1     2   511     0  3.330586483E+00  2.925294640E+00  2.840622798E+00  5.264911484E+00  0.000000000E+00  0.00000E+00  9.000E+00
#pdf   2 -2 0.33351087E-02 0.80139339E-03 0.21253048E+02 0.83307295E+00 0.11657203E+01
#rwgt            1           7   464.73661507586655         54217137    18389355           0
</event>
<event>
      6  10013  3.31628E+03  1.71790E+00 -1.00000E+00  3.96724E-01
      21    -1     0     0   511   501  0.000000000E+00  0.000000000E+00  1.286137882E+02  1.286137882E+02  0.000000000E+00  0.00000E+00  9.000E+00
       4    -1     0     0   501     0  0.000000000E+00  0.000000000E+00 -8.255313530E+00  8.255313530E+00  0.000000000E+00  0.00000E+00  9.000E+00
      23     2     1     2     0     0  1.695491936E+00  2.765764185E-01  9.045088853E+00  2.554246049E+01  2.382545840E+01  0.00000E+00  9.000E+00
      13     1     3     3     0     0 -2.252087870E-01  2.428224283E+00  1.695118929E+01  1.712603206E+01  1.056583668E-01  0.00000E+00  9.000E+00
     -13     1     3     3     0     0  1.920700723E+00 -2.151647865E+00 -7.906100434E+00  8.416428433E+00  1.056583668E-01  0.00000E+00  9.000E+00
       4     1     1     2   511     0 -1.695491936E+00 -2.765764185E-01  1.113133858E+02  1.113266412E+02  0.000000000E+00  0.00000E+00  9.000E+00
#pdf  -4  4 0.26536915E-02 0.12657426E-02 0.23825458E+02 0.55624756E+00 0.75953462E+00
#rwgt            1           2   735.52374890416024         54217137    18389450           0
</event>
<event>
      6  10013  3.31628E+03  9.59969E+00 -1.00000E+00  1.97771E-01
      21    -1     0     0   501   511  0.000000000E+00  0.000000000E+00  7.909121189E+01  7.909121189E+01  0.000000000E+00  0.00000E+00  9.000E+00
      -3    -1     0     0     0   501  0.000000000E+00  0.000000000E+00 -1.514352173E+01  1.514352173E+01  0.000000000E+00  0.00000E+00  9.000E+00
      23     2     1     2     0     0  3.056006561E-01 -9.594822799E+00  8.970736912E+00  3.842595827E+01  3.610991737E+01  0.00000E+00  9.000E+00
      13     1     3     3     0     0  8.598016579E+00 -1.474614440E+01 -7.996736465E+00  1.885029500E+01  1.056583668E-01  0.00000E+00  9.000E+00
     -13     1     3     3     0     0 -8.292415923E+00  5.151321603E+00  1.696747338E+01  1.957566327E+01  1.056583668E-01  0.00000E+00  9.000E+00
      -3     1     1     2     0   511 -3.056006561E-01  9.594822799E+00  5.497695325E+01  5.580877534E+01  0.000000000E+00  0.00000E+00  9.000E+00
#pdf   3 -3 0.35235142E-02 0.21897284E-02 0.36109917E+02 0.72371958E+00 0.87724975E+00
#rwgt            1           8   177.07748011225010         54217137    18389598           0
</event>
<event>
      6  10013  3.31628E+03  1.99946E+01 -1.00000E+00  1.66337E-01
      21    -1     0     0   511   501  0.000000000E+00  0.000000000E+00  1.164221085E+02  1.164221085E+02  0.000000000E+00  0.00000E+00  9.000E+00
       2    -1     0     0   501     0  0.000000000E+00  0.000000000E+00 -7.220696584E+01  7.220696584E+01  0.000000000E+00  0.00000E+00  9.000E+00
      23     2     1     2     0     0  1.685532098E+01 -1.075558582E+01  4.373362147E+01  1.686286660E+02  1.616267703E+02  0.00000E+00  9.000E+00
      13     1     3     3     0     0  3.363251086E+01  5.340107183E+01  7.269405990E+01  9.626659736E+01  1.056583668E-01  0.00000E+00  9.000E+00
     -13     1     3     3     0     0 -1.677718989E+01 -6.415665765E+01 -2.896043842E+01  7.236206865E+01  1.056583668E-01  0.00000E+00  9.000E+00
       2     1     1     2   511     0 -1.685532098E+01  1.075558582E+01  4.815212121E-01  2.000040835E+01  0.000000000E+00  0.00000E+00  9.000E+00
#pdf  -2  2 0.16211979E-01 0.95346301E-02 0.16162677E+03 0.41142281E+00 0.79835482E+00
#rwgt            1           4   166.27258060268852         54217137    18389627           0
</event>
<event>
      6  10013  3.31628E+03  3.68241E+00 -1.00000E+00  2.72117E-01
      -1    -1     0     0     0   511  0.000000000E+00  0.000000000E+00  4.238562479E+01  4.238562479E+01  0.000000000E+00  0.00000E+00  9.000E+00
       1    -1     0     0   501     0  0.000000000E+00  0.000000000E+00 -1.858403252E+02  1.858403252E+02  0.000000000E+00  0.00000E+00  9.000E+00
      23     2     1     2     0     0 -1.371842749E-01 -3.679855962E+00 -1.748750047E+02  1.965905952E+02  8.973870223E+01  0.00000E+00  9.000E+00
      13     1     3     3     0     0 -2.635261688E+01 -3.277969500E+01 -1.319071747E+02  1.384502897E+02  1.056583668E-01  0.00000E+00  9.000E+00
     -13     1     3     3     0     0  2.621543261E+01  2.909983904E+01 -4.296782999E+01  5.814030544E+01  1.056583668E-01  0.00000E+00  9.000E+00
      21     1     1     2   501   511  1.371842749E-01  3.679855962E+00  3.142030425E+01  3.163535488E+01  4.768371582E-07  0.00000E+00  9.000E+00
#pdf  -1  1 0.16690254E-02 0.28550250E-01 0.89738702E+02 0.11850609E+01 0.50768409E+00
#rwgt            1           5   977.42621025814788         54217137    18389721           0
</event>
<event>
      6  10013  3.31628E+03  2.80257E+01 -1.00000E+00  1.55086E-01
       2    -1     0     0   501     0  0.000000000E+00  0.000000000E+00  2.966352093E+03  2.966352093E+03  0.000000000E+00  0.00000E+00  9.000E+00
      21    -1     0     0   511   501  0.000000000E+00  0.000000000E+00 -1.565153814E+00  1.565153814E+00  0.000000000E+00  0.00000E+00  9.000E+00
      23     2     1     2     0     0  2.802537320E+01  1.418067342E-01  2.700047814E+03  2.701698829E+03  9.018271656E+01  0.00000E+00  9.000E+00
      13     1     3     3     0     0  1.213789329E+00  2.265775479E+01  2.302615441E+03  2.302727237E+03  1.056583668E-01  0.00000E+00  9.000E+00
     -13     1     3     3     0     0  2.681158387E+01 -2.251594806E+01  3.974323727E+02  3.989715917E+02  1.056583668E-01  0.00000E+00  9.000E+00
       2     1     1     2   511     0 -2.802537320E+01 -1.418067342E-01  2.647391259E+02  2.662184187E+02  0.000000000E+00  0.00000E+00  9.000E+00
#pdf   2 -2 0.39679992E+00 0.12127977E-03 0.90182717E+02 0.21207602E+00 0.31748565E+01
#rwgt            1           7   9360.4642348989892         54217137    18389868           0
</event>
<event>
      6  10013  3.31628E+03  2.82361E+00 -1.00000E+00  3.04941E-01
      -3    -1     0     0     0   501  0.000000000E+00  0.000000000E+00  1.142710510E+01  1.142710510E+01  0.000000000E+00  0.00000E+00  9.000E+00
      21    -1     0     0   501   511  0.000000000E+00  0.000000000E+00 -6.261868424E+01  6.261868424E+01  0.000000000E+00  0.00000E+00  9.000E+00
      23     2     1     2     0     0  2.281644690E+00  1.663390037E+00 -1.323943071E+01  3.598874874E+01  3.334568550E+01  0.00000E+00  9.000E+00
      13     1     3     3     0     0  1.060028915E+00  1.610223477E+01  3.238270356E-01  1.614068318E+01  1.056583668E-01  0.00000E+00  9.000E+00
     -13     1     3     3     0     0  1.221615775E+00 -1.443884473E+01 -1.356325774E+01  1.984806556E+01  1.056583668E-01  0.00000E+00  9.000E+00
      -3     1     1     2     0   511 -2.281644690E+00 -1.663390037E+00 -3.795214842E+01  3.805704059E+01  0.000000000E+00  0.00000E+00  9.000E+00
#pdf  -3  3 0.17437074E-02 0.37732797E-02 0.33345686E+02 0.94352045E+00 0.69435842E+00
#rwgt            1           3   203.97856300938275         54217137    18390002           0
</event>
<event>
      6  10013  3.31628E+03  2.95329E+00 -1.00000E+00  2.98810E-01
       1    -1     0     0   501     0  0.000000000E+00  0.000000000E+00  1.048412536E+02  1.048412536E+02  0.000000000E+00  0.00000E+00  9.000E+00
      -1    -1     0     0     0   511  0.000000000E+00  0.000000000E+00 -2.384249677E+01  2.384249677E+01  0.000000000E+00  0.00000E+00  9.000E+00
      23     2     1     2     0     0  2.946118152E-01  2.938560778E+00  7.952091182E+01  1.253813328E+02  9.689262754E+01  0.00000E+00  9.000E+00
      13     1     3     3     0     0  2.999152371E+01  2.390021918E+01  8.033836014E+01  8.902233004E+01  1.056583668E-01  0.00000E+00  9.000E+00
     -13     1     3     3     0     0 -2.969691190E+01 -2.096165840E+01 -8.174483245E-01  3.635900280E+01  1.056583668E-01  0.00000E+00  9.000E+00
      21     1     1     2   501   511 -2.946118152E-01 -2.938560778E+00  1.477844967E+00  3.302417495E+00  3.650024150E-08  0.00000E+00  9.000E+00
#pdf   1 -1 0.15754395E-01 0.35260871E-02 0.96892628E+02 0.59348011E+00 0.87563279E+00
#rwgt            1           6   832.83063628271213         54217137    18390109           0
</event>
<event>
      6  10013  3.31628E+03  1.13519E+01 -1.00000E+00  1.89545E-01
       2    -1     0     0   501     0  0.000000000E+00  0.000000000E+00  4.148067186E+01  4.148067186E+01  0.000000000E+00  0.00000E+00  9.000E+00
      -2    -1     0     0     0   511  0.000000000E+00  0.000000000E+00 -2.601453651E+01  2.601453651E+01  0.000000000E+00  0.00000E+00  9.000E+00
      23     2     1     2     0     0 -5.599030571E+00  9.875029259E+00  1.705186527E+01  5.603310186E+01  5.215435791E+01  0.00000E+00  9.000E+00
      13     1     3     3     0     0 -2.839005181E+01  8.306526942E+00  4.362821983E+00  2.990048179E+01  1.056583668E-01  0.00000E+00  9.000E+00
     -13     1     3     3     0     0  2.279102124E+01  1.568502317E+00  1.268904329E+01  2.613262007E+01  1.056583668E-01  0.00000E+00  9.000E+00
      21     1     1     2   501   511  5.599030571E+00 -9.875029259E+00 -1.585729927E+00  1.146210651E+01  1.032382731E-07  0.00000E+00  9.000E+00
#pdf   2 -2 0.54933020E-02 0.29299555E-02 0.52154358E+02 0.83472292E+00 0.86273071E+00
#rwgt            1           7   1052.2784251870025         54217137    18390279           0
</event>
<event>
      6  10013  3.31628E+03  2.74946E+00 -1.00000E+00  3.08703E-01
       2    -1     0     0   501     0  0.000000000E+00  0.000000000E+00  2.441268467E+03  2.441268467E+03  0.000000000E+00  0.00000E+00  9.000E+00
      -2    -1     0     0     0   511  0.000000000E+00  0.000000000E+00 -8.616172708E-02  8.616172708E-02  0.000000000E+00  0.00000E+00  9.000E+00
      23     2     1     2     0     0  2.712863519E+00  4.470932258E-01  2.362640885E+03  2.362765098E+03  2.407074902E+01  0.00000E+00  9.000E+00
      13     1     3     3     0     0  6.726379031E+00  1.001836110E+01  1.701041126E+03  1.701083930E+03  1.056583668E-01  0.00000E+00  9.000E+00
     -13     1     3     3     0     0 -4.013515512E+00 -9.571267876E+00  6.615997581E+02  6.616811684E+02  1.056583668E-01  0.00000E+00  9.000E+00
      21     1     1     2   501   511 -2.712863519E+00 -4.470932258E-01  7.854142044E+01  7.858953013E+01  3.932099939E-06  0.00000E+00  9.000E+00
#pdf   2 -2 0.36114445E+00 0.94931765E-05 0.24070749E+02 0.30990172E+00 0.47325157E+01
#rwgt            1           7   9465.6750434783189         54217137    18390351           0
</event>
<event>
      6  10013  3.31628E+03  5.08712E+00 -1.00000E+00  2.37126E-01
      -2    -1     0     0     0   501  0.000000000E+00  0.000000000E+00  1.174816692E-01  1.174816692E-01  0.000000000E+00  0.00000E+00  9.000E+00
       2    -1     0     0   511     0  0.000000000E+00  0.000000000E+00 -1.473873870E+03  1.473873870E+03  0.000000000E+00  0.00000E+00  9.000E+00
      23     2     1     2     0     0  3.153508864E+00  3.991757189E+00 -1.184347950E+03  1.184538207E+03  2.061112773E+01  0.00000E+00  9.000E+00
      13     1     3     3     0     0 -8.139823767E+00 -4.157111640E-01 -3.138070832E+02  3.139129277E+02  1.056583668E-01  0.00000E+00  9.000E+00
     -13     1     3     3     0     0  1.129333263E+01  4.407468353E+00 -8.705408667E+02  8.706252793E+02  1.056583668E-01  0.00000E+00  9.000E+00
      21     1     1     2   511   501 -3.153508864E+00 -3.991757189E+00 -2.894084380E+02  2.894531443E+02  6.607249480E-06  0.00000E+00  9.000E+00
#pdf  -2  2 0.14208777E-04 0.17691314E+00 0.20611128E+02 0.39552560E+01 0.57409120E+00
#rwgt            1           4   2564.7647349838207         54217137    18390403           0
</event>
<event>
      6  10013  3.31628E+03  3.17032E+01 -1.00000E+00  1.51358E-01
       2    -1     0     0   501     0  0.000000000E+00  0.000000000E+00  1.055247831E+03  1.055247831E+03  0.000000000E+00  0.00000E+00  9.000E+00
      21    -1     0     0   511   501  0.000000000E+00  0.000000000E+00 -5.747394779E+00  5.747394779E+00  0.000000000E+00  0.00000E+00  9.000E+00
      23     2     1     2     0     0  2.707995908E+01 -1.648537517E+01  1.000137381E+03  1.002328344E+03  5.815700193E+01  0.00000E+00  9.000E+00
      13     1     3     3     0     0  4.294470301E+01 -1.862640927E+01  8.612897651E+02  8.625608739E+02  1.056583668E-01  0.00000E+00  9.000E+00
     -13     1     3     3     0     0 -1.586474394E+01  2.141034094E+00  1.388476161E+02  1.397674705E+02  1.056583668E-01  0.00000E+00  9.000E+00
       2     1     1     2   511     0 -2.707995908E+01  1.648537517E+01  4.936305529E+01  5.866688167E+01  0.000000000E+00  0.00000E+00  9.000E+00
#pdf   2 -2 0.13524576E+00 0.14797681E-03 0.58157002E+02 0.58162080E+00 0.26653416E+01
#rwgt            1           7   916.20367513094357         54217137    18390463           0
</event>
<event>
      6  10013  3.31628E+03  8.46801E+00 -1.00000E+00  2.04430E-01
      21    -1     0     0   511   501  0.000000000E+00  0.000000000E+00  4.348502159E+00  4.348502159E+00  0.000000000E+00  0.00000E+00  9.000E+00
       2    -1     0     0   501     0  0.000000000E+00  0.000000000E+00 -5.671839891E+02  5.671839891E+02  0.000000000E+00  0.00000E+00  9.000E+00
      23     2     1     2     0     0 -8.073163405E+00  2.555614780E+00 -5.419312829E+02  5.489782704E+02  8.726923166E+01  0.00000E+00  9.000E+00
      13     1     3     3     0     0  1.111819870E+01 -3.612588159E+01 -1.505624540E+02  1.552345238E+02  1.056583668E-01  0.00000E+00  9.000E+00
     -13     1     3     3     0     0 -1.919136211E+01  3.868149637E+01 -3.913688290E+02  3.937437466E+02  1.056583668E-01  0.00000E+00  9.000E+00
       2     1     1     2   511     0  8.073163405E+00 -2.555614780E+00 -2.090420403E+01  2.255422090E+01  0.000000000E+00  0.00000E+00  9.000E+00
#pdf  -2  2 0.53954190E-03 0.83523834E-01 0.87269232E+02 0.18258225E+01 0.61433434E+00
#rwgt            1           4   770.79417677629863         54217137    18390496           0
</event>
<event>
      6  10013  3.31628E+03  5.85309E+00 -1.00000E+00  2.27077E-01
      21    -1     0     0   501   511  0.000000000E+00  0.000000000E+00  3.627145322E+00  3.627145322E+00  0.000000000E+00  0.00000E+00  9.000E+00
      -2    -1     0     0     0   501  0.000000000E+00  0.000000000E+00 -1.681097881E+02  1.681097881E+02  0.000000000E+00  0.00000E+00  9.000E+00
      23     2     1     2     0     0  2.951208462E+00  5.054602449E+00 -1.633439746E+02  1.657741151E+02  2.766847602E+01  0.00000E+00  9.000E+00
      13     1     3     3     0     0  1.437933667E+01 -1.309076868E+00 -1.045623442E+02  1.055546020E+02  1.056583668E-01  0.00000E+00  9.000E+00
     -13     1     3     3     0     0 -1.142812821E+01  6.363679317E+00 -5.878163033E+01  6.021951309E+01  1.056583668E-01  0.00000E+00  9.000E+00
      -2     1     1     2     0   511 -2.951208462E+00 -5.054602449E+00 -1.138668212E+00  5.962818344E+00  0.000000000E+00  0.00000E+00  9.000E+00
#pdf   2 -2 0.18288652E-03 0.24768635E-01 0.27668476E+02 0.20544945E+01 0.29395192E+00
#rwgt            1           7   613.23314991797236         54217137    18390622           0
</event>
<event>
      6  10013  3.31628E+03  7.94805E+00 -1.00000E+00  2.07975E-01
      -1    -1     0     0     0   501  0.000000000E+00  0.000000000E+00  2.992570673E+01  2.992570673E+01  0.000000000E+00  0.00000E+00  9.000E+00
       1    -1     0     0   511     0  0.000000000E+00  0.000000000E+00 -1.981260687E+01  1.981260687E+01  0.000000000E+00  0.00000E+00  9.000E+00
      23     2     1     2     0     0 -5.016779590E+00  6.164695387E+00  1.325608273E+01  4.119139089E+01  3.818161085E+01  0.00000E+00  9.000E+00
      13     1     3     3     0     0  2.925529507E+00 -9.697746611E+00 -8.426337359E+00  1.317646907E+01  1.056583668E-01  0.00000E+00  9.000E+00
     -13     1     3     3     0     0 -7.942309097E+00  1.586244200E+01  2.168242008E+01  2.801492182E+01  1.056583668E-01  0.00000E+00  9.000E+00
      21     1     1     2   511   501  5.016779590E+00 -6.164695387E+00 -3.142982867E+00  8.546922719E+00  1.632340424E-07  0.00000E+00  9.000E+00
#pdf  -1  1 0.41003698E-02 0.21037724E-02 0.38181611E+02 0.73102165E+00 0.10072594E+01
#rwgt            1           5   133.35618370192933         54217137    18390669           0
</event>
<event>
      6  10013  3.31628E+03  3.30480E+01 -1.00000E+00  1.50143E-01
       2    -1     0     0   511     0  0.000000000E+00  0.000000000E+00  9.481338120E+02  9.481338120E+02  0.000000000E+00  0.00000E+00  9.000E+00
      -2    -1     0     0     0   501  0.000000000E+00  0.000000000E+00 -4.635762333E+00  4.635762333E+00  0.000000000E+00  0.00000E+00  9.000E+00
      23     2     1     2     0     0 -3.174298589E+00 -3.289521876E+01  6.078751239E+02  6.155234922E+02  9.091111951E+01  0.00000E+00  9.000E+00
      13     1     3     3     0     0  4.045879329E+01  2.138605809E+00  2.777578739E+02  2.806972306E+02  1.056583668E-01  0.00000E+00  9.000E+00
     -13     1     3     3     0     0 -4.363309188E+01 -3.503382457E+01  3.301172499E+02  3.348262616E+02  1.056583668E-01  0.00000E+00  9.000E+00
      21     1     1     2   511   501  3.174298589E+00  3.289521876E+01  3.356229258E+02  3.372460822E+02  6.607249480E-06  0.00000E+00  9.000E+00
#pdf   2 -2 0.88444992E-01 0.55293497E-03 0.90911120E+02 0.61066858E+00 0.18225918E+01
#rwgt            1           7   1374.3072290839852         54217137    18390749           0
</event>
<event>
      6  10013  3.31628E+03  6.99918E+00 -1.00000E+00  2.15489E-01
      -1    -1     0     0     0   501  0.000000000E+00  0.000000000E+00  3.785462401E+00  3.785462401E+00  0.000000000E+00  0.00000E+00  9.000E+00
       1    -1     0     0   511     0  0.000000000E+00  0.000000000E+00 -1.105023927E+03  1.105023927E+03  0.000000000E+00  0.00000E+00  9.000E+00
      23     2     1     2     0     0 -6.653639849E+00 -2.172018042E+00 -5.511266336E+02  5.586530342E+02  9.112440809E+01  0.00000E+00  9.000E+00
      13     1     3     3     0     0  4.093498467E+01 -1.082486835E+01 -2.915039235E+02  2.945630651E+02  1.056583668E-01  0.00000E+00  9.000E+00
     -13     1     3     3     0     0 -4.758862452E+01  8.652850309E+00 -2.596227101E+02  2.640899691E+02  1.056583668E-01  0.00000E+00  9.000E+00
      21     1     1     2   511   501  6.653639849E+00  2.172018042E+00 -5.501118309E+02  5.501563552E+02  0.000000000E+00  0.00000E+00  9.000E+00
#pdf  -1  1 0.57725360E-03 0.85116956E-01 0.91124408E+02 0.18000978E+01 0.38323246E+00
#rwgt            1           5   973.36051074839577         54217137    18390808           0
</event>
<event>
      6  10013 -3.31628E+03  1.97000E+01 -1.00000E+00  1.66871E-01
      -4    -1     0     0     0   511  0.000000000E+00  0.000000000E+00  9.406222605E+00  9.406222605E+00  0.000000000E+00  0.00000E+00  9.000E+00
       4    -1     0     0   501     0  0.000000000E+00  0.000000000E+00 -3.704887885E+02  3.704887885E+02  0.000000000E+00  0.00000E+00  9.000E+00
      23     2     1     2     0     0  1.898761541E+01  5.249732433E+00 -3.293398539E+02  3.425360899E+02  9.207683901E+01  0.00000E+00  9.000E+00
      13     1     3     3     0     0  8.955558005E+00 -4.563007945E+00 -3.283109424E+02  3.284647761E+02  1.056583668E-01  0.00000E+00  9.000E+00
     -13     1     3     3     0     0  1.003205740E+01  9.812740378E+00 -1.028911482E+00  1.407131380E+01  1.056583668E-01  0.00000E+00  9.000E+00
      21     1     1     2   501   511 -1.898761541E+01 -5.249732433E+00 -3.174271200E+01  3.735892122E+01  7.539457465E-07  0.00000E+00  9.000E+00
#pdf  -4  4 0.99263033E-03 0.50538990E-01 0.92076839E+02 0.11840165E+01 0.83760401E-01
#rwgt            1           2  -289.43399859375603         54217137    18390882           0
</event>
<event>
      6  10013  3.31628E+03  2.69868E+01 -1.00000E+00  1.56266E-01
       2    -1     0     0   501     0  0.000000000E+00  0.000000000E+00  6.630250883E+01  6.630250883E+01  0.000000000E+00  0.00000E+00  9.000E+00
      21    -1     0     0   511   501  0.000000000E+00  0.000000000E+00 -5.713028962E+01  5.713028962E+01  0.000000000E+00  0.00000E+00  9.000E+00
      23     2     1     2     0     0 -2.660849357E+01  4.502960464E+00  3.354133384E+00  9.582593869E+01  9.188618902E+01  0.00000E+00  9.000E+00
      13     1     3     3     0     0 -5.822339884E+01  7.440305365E+00  1.723222493E+01  6.117420253E+01  1.056583668E-01  0.00000E+00  9.000E+00
     -13     1     3     3     0     0  3.161490527E+01 -2.937344901E+00 -1.387809154E+01  3.465173616E+01  1.056583668E-01  0.00000E+00  9.000E+00
       2     1     1     2   511     0  2.660849357E+01 -4.502960464E+00  5.818085826E+00  2.760685976E+01  0.000000000E+00  0.00000E+00  9.000E+00
#pdf   2 -2 0.73200564E-02 0.68249480E-02 0.91886189E+02 0.81931871E+00 0.63234330E+00
#rwgt            1           7   601.52768445090373         54217137    18390983           0
</event>
<event>
      6  10013  3.31628E+03  8.44588E+00 -1.00000E+00  2.04574E-01
      -2    -1     0     0     0   511  0.000000000E+00  0.000000000E+00  2.496608015E+00  2.496608015E+00  0.000000000E+00  0.00000E+00  9.000E+00
       2    -1     0     0   501     0  0.000000000E+00  0.000000000E+00 -1.009607246E+03  1.009607246E+03  0.000000000E+00  0.00000E+00  9.000E+00
      23     2     1     2     0     0  4.366158710E+00 -7.229764950E+00 -9.450150095E+02  9.494364787E+02  9.113136776E+01  0.00000E+00  9.000E+00
      13     1     3     3     0     0  1.352265473E+01 -1.014997045E+01 -9.363290581E+02  9.364817138E+02  1.056583668E-01  0.00000E+00  9.000E+00
     -13     1     3     3     0     0 -9.156496017E+00  2.920205501E+00 -8.685951372E+00  1.295476493E+01  1.056583668E-01  0.00000E+00  9.000E+00
      21     1     1     2   501   511 -4.366158710E+00  7.229764950E+00 -6.209562803E+01  6.266737479E+01  6.743495762E-07  0.00000E+00  9.000E+00
#pdf  -2  2 0.33866171E-03 0.14510520E+00 0.91131368E+02 0.21927858E+01 0.55987158E+00
#rwgt            1           4   1579.7203508693251         54217137    18391046           0
</event>
<event>
      6  10013  3.31628E+03  2.90821E+01 -1.00000E+00  1.53948E-01
       1    -1     0     0   501     0  0.000000000E+00  0.000000000E+00  2.004873767E+03  2.004873767E+03  0.000000000E+00  0.00000E+00  9.000E+00
      -1    -1     0     0     0   511  0.000000000E+00  0.000000000E+00 -1.986877175E+00  1.986877175E+00  0.000000000E+00  0.00000E+00  9.000E+00
      23     2     1     2     0     0  1.548254112E+01 -2.461831921E+01  1.566957403E+03  1.569962157E+03  9.262775223E+01  0.00000E+00  9.000E+00
      13     1     3     3     0     0  4.765396234E+01 -3.656795124E+01  8.082666449E+02  8.104955864E+02  1.056583668E-01  0.00000E+00  9.000E+00
     -13     1     3     3     0     0 -3.217142122E+01  1.194963203E+01  7.586907584E+02  7.594665708E+02  1.056583668E-01  0.00000E+00  9.000E+00
      21     1     1     2   501   511 -1.548254112E+01  2.461831921E+01  4.359294864E+02  4.368984868E+02  5.394796609E-06  0.00000E+00  9.000E+00
#pdf   1 -1 0.23022104E+00 0.22052129E-03 0.92627752E+02 0.19702506E+00 0.25809470E+01
#rwgt            1           6   738.22571289201619         54217137    18391193           0
</event>
<event>
      6  10013  3.31628E+03  9.28985E-01 -1.00000E+00  7.14151E-01
       2    -1     0     0   511     0  0.000000000E+00  0.000000000E+00  2.582948090E+02  2.582948090E+02  0.000000000E+00  0.00000E+00  9.000E+00
      -2    -1     0     0     0   501  0.000000000E+00  0.000000000E+00 -1.331297398E+01  1.331297398E+01  0.000000000E+00  0.00000E+00  9.000E+00
      23     2     1     2     0     0  4.095675999E-01  8.338265813E-01  2.145513709E+02  2.411631420E+02  1.101204220E+02  0.00000E+00  9.000E+00
      13     1     3     3     0     0  4.690621899E-01 -5.360834535E+01  1.297581034E+02  1.403967637E+02  1.056583668E-01  0.00000E+00  9.000E+00
     -13     1     3     3     0     0 -5.949458995E-02  5.444217193E+01  8.479326747E+01  1.007663783E+02  1.056583668E-01  0.00000E+00  9.000E+00
      21     1     1     2   511   501 -4.095675999E-01 -8.338265813E-01  3.043046419E+01  3.044464096E+01  3.371747881E-07  0.00000E+00  9.000E+00
#pdf   2 -2 0.35053715E-01 0.20469865E-02 0.11012042E+03 0.64746513E+00 0.11104342E+01
#rwgt            1           7   1213.7009195901803         54217137    18391263           0
</event>
<event>
      6  10013  3.31628E+03  1.62361E+01 -1.00000E+00  1.74158E-01
      21    -1     0     0   501   511  0.000000000E+00  0.000000000E+00  7.013811102E+01  7.013811102E+01  0.000000000E+00  0.00000E+00  9.000E+00
      -3    -1     0     0     0   501  0.000000000E+00  0.000000000E+00 -1.131144075E+02  1.131144075E+02  0.000000000E+00  0.00000E+00  9.000E+00
      23     2     1     2     0     0 -1.564648938E+01 -4.335730540E+00 -9.641686718E+01  1.273999825E+02  8.167577412E+01  0.00000E+00  9.000E+00
      13     1     3     3     0     0  1.590188476E+01  3.138283218E+01 -4.745883038E+01  5.907710081E+01  1.056583668E-01  0.00000E+00  9.000E+00
     -13     1     3     3     0     0 -3.154837414E+01 -3.571856272E+01 -4.895803680E+01  6.832288171E+01  1.056583668E-01  0.00000E+00  9.000E+00
      -3     1     1     2     0   511  1.564648938E+01  4.335730540E+00  5.344057066E+01  5.585253604E+01  0.000000000E+00  0.00000E+00  9.000E+00
#pdf   3 -3 0.23375777E-02 0.16886271E-01 0.81675774E+02 0.97358783E+00 0.35587168E+00
#rwgt            1           8   327.35170478662133         54217137    18391606           0
</event>
<event>
      6  10013  3.31628E+03  4.22943E+00 -1.00000E+00  2.57787E-01
       2    -1     0     0   511     0  0.000000000E+00  0.000000000E+00  5.779167355E+01  5.779167355E+01  0.000000000E+00  0.00000E+00  9.000E+00
      -2    -1     0     0     0   501  0.000000000E+00  0.000000000E+00 -6.561760687E+00  6.561760687E+00  0.000000000E+00  0.00000E+00  9.000E+00
      23     2     1     2     0     0  3.818747169E+00  1.818025441E+00  2.419793553E+01  3.699258913E+01  2.765905855E+01  0.00000E+00  9.000E+00
      13     1     3     3     0     0  1.443965979E+00  6.069731092E-01  3.029591213E+01  3.033656060E+01  1.056583668E-01  0.00000E+00  9.000E+00
     -13     1     3     3     0     0  2.374781190E+00  1.211052332E+00 -6.097976596E+00  6.656028524E+00  1.056583668E-01  0.00000E+00  9.000E+00
      21     1     1     2   511   501 -3.818747169E+00 -1.818025441E+00  2.703197733E+01  2.736084511E+01  4.768371582E-07  0.00000E+00  9.000E+00
#pdf   2 -2 0.46528801E-02 0.97289555E-03 0.27659059E+02 0.80345263E+00 0.11632798E+01
#rwgt            1           7   246.90656428738095         54217137    18391662           0
</event>
<event>
      6  10013  3.31628E+03  6.00218E+00 -1.00000E+00  2.25369E-01
       2    -1     0     0   501     0  0.000000000E+00  0.000000000E+00  2.055912743E+03  2.055912743E+03  0.000000000E+00  0.00000E+00  9.000E+00
      21    -1     0     0   511   501  0.000000000E+00  0.000000000E+00 -2.561329945E+00  2.561329945E+00  0.000000000E+00  0.00000E+00  9.000E+00
      23     2     1     2     0     0 -5.122056474E+00  3.129007369E+00  2.047855983E+03  2.050336144E+03  1.006386937E+02  0.00000E+00  9.000E+00
      13     1     3     3     0     0 -9.674636655E+00 -3.860978517E+01  1.605190889E+03  1.605684314E+03  1.056583668E-01  0.00000E+00  9.000E+00
     -13     1     3     3     0     0  4.552580182E+00  4.173879254E+01  4.426650939E+02  4.446518294E+02  1.056583668E-01  0.00000E+00  9.000E+00
       2     1     1     2   511     0  5.122056474E+00 -3.129007369E+00  5.495430022E+00  8.137929759E+00  0.000000000E+00  0.00000E+00  9.000E+00
#pdf   2 -2 0.31468637E+00 0.19044314E-03 0.10063869E+03 0.31890484E+00 0.27659299E+01
#rwgt            1           7   2474.8977826664564         54217137    18391745           0
</event>
<event>
      6  10013 -3.31628E+03  1.31184E+00 -1.00000E+00  4.95485E-01
      -3    -1     0     0     0   501  0.000000000E+00  0.000000000E+00  4.200224234E+01  4.200224234E+01  0.000000000E+00  0.00000E+00  9.000E+00
       3    -1     0     0   511     0  0.000000000E+00  0.000000000E+00 -5.184941813E+01  5.184941813E+01  0.000000000E+00  0.00000E+00  9.000E+00
      23     2     1     2     0     0  1.159831366E+00 -6.129475610E-01 -8.587939839E+00  9.203325768E+01  9.162230566E+01  0.00000E+00  9.000E+00
      13     1     3     3     0     0  3.073955988E+01  9.817051516E+00 -3.743237838E+01  4.942154547E+01  1.056583668E-01  0.00000E+00  9.000E+00
     -13     1     3     3     0     0 -2.957972851E+01 -1.042999908E+01  2.884443854E+01  4.261171221E+01  1.056583668E-01  0.00000E+00  9.000E+00
      21     1     1     2   511   501 -1.159831366E+00  6.129475610E-01 -1.259235953E+00  1.818402787E+00  2.580956828E-08  0.00000E+00  9.000E+00
#pdf  -3  3 0.64182128E-02 0.77392989E-02 0.91622306E+02 0.61817046E+00 0.56156993E+00
#rwgt            1           3  -169.71466344282933         54217137    18391854           0
</event>
<event>
      6  10013  3.31628E+03  3.03374E+01 -1.00000E+00  1.52668E-01
       2    -1     0     0   501     0  0.000000000E+00  0.000000000E+00  2.141358259E+03  2.141358259E+03  0.000000000E+00  0.00000E+00  9.000E+00
      21    -1     0     0   511   501  0.000000000E+00  0.000000000E+00 -1.880028744E+00  1.880028744E+00  0.000000000E+00  0.00000E+00  9.000E+00
      23     2     1     2     0     0  3.022281205E+01  2.634077243E+00  1.531006586E+03  1.534010827E+03  9.103677872E+01  0.00000E+00  9.000E+00
      13     1     3     3     0     0  1.633936280E+01  2.776198597E+01  1.375458356E+03  1.375835529E+03  1.056583668E-01  0.00000E+00  9.000E+00
     -13     1     3     3     0     0  1.388344925E+01 -2.512790873E+01  1.555482301E+02  1.581752984E+02  1.056583668E-01  0.00000E+00  9.000E+00
       2     1     1     2   511     0 -3.022281205E+01 -2.634077243E+00  6.084716450E+02  6.092274612E+02  0.000000000E+00  0.00000E+00  9.000E+00
#pdf   2 -2 0.22367765E+00 0.21924236E-03 0.91036779E+02 0.45715278E+00 0.25722450E+01
#rwgt            1           7   1905.3603062166460         54217137    18392057           0
</event>
<event>
      6  10013  3.31628E+03  1.26502E+01 -1.00000E+00  1.84599E-01
      21    -1     0     0   511   501  0.000000000E+00  0.000000000E+00  1.837997044E+00  1.837997044E+00  0.000000000E+00  0.00000E+00  9.000E+00
       2    -1     0     0   501     0  0.000000000E+00  0.000000000E+00 -5.590615889E+02  5.590615889E+02  0.000000000E+00  0.00000E+00  9.000E+00
      23     2     1     2     0     0  4.010584179E+00  1.199759954E+01 -5.039703344E+02  5.061644363E+02  4.534656998E+01  0.00000E+00  9.000E+00
      13     1     3     3     0     0 -7.282850087E+00 -1.545604047E+01 -1.572346302E+02  1.581602643E+02  1.056583668E-01  0.00000E+00  9.000E+00
     -13     1     3     3     0     0  1.129343427E+01  2.745364001E+01 -3.467357042E+02  3.480041720E+02  1.056583668E-01  0.00000E+00  9.000E+00
       2     1     1     2   511     0 -4.010584179E+00 -1.199759954E+01 -5.325325746E+01  5.473514968E+01  0.000000000E+00  0.00000E+00  9.000E+00
#pdf  -2  2 0.16256978E-03 0.74844925E-01 0.45346570E+02 0.24218184E+01 0.62450650E+00
#rwgt            1           4   1670.7827776565555         54217137    18392118           0
</event>
<event>
      6  10013  3.31628E+03  3.09134E+00 -1.00000E+00  2.92835E-01
      -2    -1     0     0     0   501  0.000000000E+00  0.000000000E+00  4.030580411E+00  4.030580411E+00  0.000000000E+00  0.00000E+00  9.000E+00
      21    -1     0     0   501   511  0.000000000E+00  0.000000000E+00 -1.191672238E+02  1.191672238E+02  0.000000000E+00  0.00000E+00  9.000E+00
      23     2     1     2     0     0  2.441731791E+00 -1.895868425E+00 -3.601267271E+01  4.401346796E+01  2.511406767E+01  0.00000E+00  9.000E+00
      13     1     3     3     0     0  2.921154913E+00 -1.277987446E+01 -2.643434076E+01  2.950667505E+01  1.056583668E-01  0.00000E+00  9.000E+00
     -13     1     3     3     0     0 -4.794231221E-01  1.088400604E+01 -9.578331943E+00  1.450679291E+01  1.056583668E-01  0.00000E+00  9.000E+00
      -2     1     1     2     0   511 -2.441731791E+00  1.895868425E+00 -7.912397065E+01  7.918433622E+01  0.000000000E+00  0.00000E+00  9.000E+00
#pdf  -2  2 0.61083561E-03 0.61097447E-02 0.25114068E+02 0.13319721E+01 0.74840625E+00
#rwgt            1           4   969.32616348688987         54217137    18392215           0
</event>
<event>
      6  10013  3.31628E+03  4.14931E+00 -1.00000E+00  2.59671E-01
      21    -1     0     0   501   511  0.000000000E+00  0.000000000E+00  2.707042392E+01  2.707042392E+01  0.000000000E+00  0.00000E+00  9.000E+00
      -1    -1     0     0     0   501  0.000000000E+00  0.000000000E+00 -1.051032103E+02  1.051032103E+02  0.000000000E+00  0.00000E+00  9.000E+00
      23     2     1     2     0     0 -3.458855693E+00  2.291960565E+00 -8.579622074E+01  1.233709256E+02  8.855606710E+01  0.00000E+00  9.000E+00
      13     1     3     3     0     0  7.923426320E-01  1.253523255E+01  1.635366677E+01  2.062070422E+01  1.056583668E-01  0.00000E+00  9.000E+00
     -13     1     3     3     0     0 -4.251198324E+00 -1.024327199E+01 -1.021498875E+02  1.027502214E+02  1.056583668E-01  0.00000E+00  9.000E+00
      -1     1     1     2     0   511  3.458855693E+00 -2.291960565E+00  7.763434375E+00  8.802708630E+00  0.000000000E+00  0.00000E+00  9.000E+00
#pdf   1 -1 0.28871944E-02 0.16072148E-01 0.88556067E+02 0.10196616E+01 0.42534838E+00
#rwgt            1           6   554.68691730110038         54217137    18392334           0
</event>
<event>
      6  10013  3.31628E+03  1.39357E+01 -1.00000E+00  1.80399E-01
       2    -1     0     0   501     0  0.000000000E+00  0.000000000E+00  1.016648481E+02  1.016648481E+02  0.000000000E+00  0.00000E+00  9.000E+00
      21    -1     0     0   511   501  0.000000000E+00  0.000000000E+00 -7.070044219E+01  7.070044219E+01  0.000000000E+00  0.00000E+00  9.000E+00
      23     2     1     2     0     0 -7.089779259E+00  1.199739561E+01  7.975914271E+01  1.216195634E+02  9.075017838E+01  0.00000E+00  9.000E+00
      13     1     3     3     0     0 -1.525893537E+01 -8.641021689E+00  9.375366272E+01  9.537957225E+01  1.056583668E-01  0.00000E+00  9.000E+00
     -13     1     3     3     0     0  8.169156115E+00  2.063841729E+01 -1.399452001E+01  2.623999112E+01  1.056583668E-01  0.00000E+00  9.000E+00
       2     1     1     2   511     0  7.089779259E+00 -1.199739561E+01 -4.879473676E+01  5.074572698E+01  0.000000000E+00  0.00000E+00  9.000E+00
#pdf   2 -2 0.15311196E-01 0.31827253E-02 0.90750178E+02 0.70542374E+00 0.89613593E+00
#rwgt            1           7   621.90891207778236         54217137    18392419           0
</event>
<event>
      6  10013  3.31628E+03  7.12288E+00 -1.00000E+00  2.14420E-01
      -1    -1     0     0     0   501  0.000000000E+00  0.000000000E+00  8.543831443E+02  8.543831443E+02  0.000000000E+00  0.00000E+00  9.000E+00
      21    -1     0     0   501   511  0.000000000E+00  0.000000000E+00 -1.549849106E+01  1.549849106E+01  0.000000000E+00  0.00000E+00  9.000E+00
      23     2     1     2     0     0 -3.637834215E+00 -6.123856792E+00  8.509685664E+02  8.558546465E+02  9.104361346E+01  0.00000E+00  9.000E+00
      13     1     3     3     0     0 -3.710017201E+01  4.143985288E+00  6.952117765E+02  6.962133443E+02  1.056583668E-01  0.00000E+00  9.000E+00
     -13     1     3     3     0     0  3.346233779E+01 -1.026784208E+01  1.557567898E+02  1.596413022E+02  1.056583668E-01  0.00000E+00  9.000E+00
      -1     1     1     2     0   511  3.637834215E+00  6.123856792E+00 -1.208391313E+01  1.402698885E+01  0.000000000E+00  0.00000E+00  9.000E+00
#pdf  -1  1 0.13089411E+00 0.37470730E-03 0.91043613E+02 0.80686213E-01 0.21433217E+01
#rwgt            1           5   237.27181226067779         54217137    18392544           0
</event>
<event>
      6  10013  3.31628E+03  5.50843E+00 -1.00000E+00  2.31313E-01
       4    -1     0     0   501     0  0.000000000E+00  0.000000000E+00  1.671947287E+01  1.671947287E+01  0.000000000E+00  0.00000E+00  9.000E+00
      21    -1     0     0   511   501  0.000000000E+00  0.000000000E+00 -2.177146888E+01  2.177146888E+01  0.000000000E+00  0.00000E+00  9.000E+00
      23     2     1     2     0     0  5.463022962E+00  7.057847769E-01  3.369082424E+00  2.842827242E+01  2.768525248E+01  0.00000E+00  9.000E+00
      13     1     3     3     0     0  1.523431657E+01 -5.951781642E+00  2.769601494E+00  1.658885054E+01  1.056583668E-01  0.00000E+00  9.000E+00
     -13     1     3     3     0     0 -9.771293610E+00  6.657566419E+00  5.994809298E-01  1.183942188E+01  1.056583668E-01  0.00000E+00  9.000E+00
       4     1     1     2   511     0 -5.463022962E+00 -7.057847769E-01 -8.421078436E+00  1.006266933E+01  0.000000000E+00  0.00000E+00  9.000E+00
#pdf   4 -4 0.23989275E-02 0.18905717E-02 0.27685252E+02 0.60629173E+00 0.67270329E+00
#rwgt            1           9   568.55642192928394         54217137    18392634           0
</event>
<event>
      6  10013  3.31628E+03  3.25858E+00 -1.00000E+00  2.86252E-01
       2    -1     0     0   511     0  0.000000000E+00  0.000000000E+00  1.986669317E+02  1.986669317E+02  0.000000000E+00  0.00000E+00  9.000E+00
      -2    -1     0     0     0   501  0.000000000E+00  0.000000000E+00 -1.556389401E+00  1.556389401E+00  0.000000000E+00  0.00000E+00  9.000E+00
      23     2     1     2     0     0 -2.984407139E+00 -1.308305621E+00  1.764067539E+02  1.792646665E+02  3.171528774E+01  0.00000E+00  9.000E+00
      13     1     3     3     0     0 -1.013085020E+01  6.331798342E+00  1.547787840E+02  1.552391991E+02  1.056583668E-01  0.00000E+00  9.000E+00
     -13     1     3     3     0     0  7.146443063E+00 -7.640103963E+00  2.162796986E+01  2.402546735E+01  1.056583668E-01  0.00000E+00  9.000E+00
      21     1     1     2   511   501  2.984407139E+00  1.308305621E+00  2.070378835E+01  2.095865457E+01  0.000000000E+00  0.00000E+00  9.000E+00
#pdf   2 -2 0.27216064E-01 0.21868817E-03 0.31715288E+02 0.63605076E+00 0.19917894E+01
#rwgt            1           7   1527.0176810860587         54217137    18392745           0
</event>
<event>
      6  10013  3.31628E+03  3.10394E+01 -1.00000E+00  1.51985E-01
       3    -1     0     0   501     0  0.000000000E+00  0.000000000E+00  1.840488173E+01  1.840488173E+01  0.000000000E+00  0.00000E+00  9.000E+00
      -3    -1     0     0     0   511  0.000000000E+00  0.000000000E+00 -2.251576491E+02  2.251576491E+02  0.000000000E+00  0.00000E+00  9.000E+00
      23     2     1     2     0     0  1.147285657E+01 -2.884120380E+01 -1.507362215E+02  1.795211779E+02  9.242836882E+01  0.00000E+00  9.000E+00
      13     1     3     3     0     0  6.235781379E-01  3.360417962E+01 -4.374537995E+01  5.516610525E+01  1.056583668E-01  0.00000E+00  9.000E+00
     -13     1     3     3     0     0  1.084927843E+01 -6.244538341E+01 -1.069908415E+02  1.243550726E+02  1.056583668E-01  0.00000E+00  9.000E+00
      21     1     1     2   501   511 -1.147285657E+01  2.884120380E+01 -5.601654585E+01  6.404135291E+01  0.000000000E+00  0.00000E+00  9.000E+00
#pdf   3 -3 0.20990290E-02 0.24082714E-01 0.92428369E+02 0.10376672E+01 0.28111977E+00
#rwgt            1           8   338.44688359473827         54217137    18392847           0
</event>
<event>
      6  10013  3.31628E+03  4.55769E+01 -1.00000E+00  1.41380E-01
      21    -1     0     0   511   501  0.000000000E+00  0.000000000E+00  1.363771625E+01  1.363771625E+01  0.000000000E+00  0.00000E+00  9.000E+00
       1    -1     0     0   501     0  0.000000000E+00  0.000000000E+00 -9.964241089E+02  9.964241089E+02  0.000000000E+00  0.00000E+00  9.000E+00
      23     2     1     2     0     0 -3.722214871E+01 -2.630136083E+01 -9.454866226E+02  9.511676592E+02  9.326152748E+01  0.00000E+00  9.000E+00
      13     1     3     3     0     0 -4.569831126E+00  3.375076065E+01 -2.454684033E+02  2.478199858E+02  1.056583668E-01  0.00000E+00  9.000E+00
     -13     1     3     3     0     0 -3.265231758E+01 -6.005212148E+01 -7.000182193E+02  7.033476734E+02  1.056583668E-01  0.00000E+00  9.000E+00
       1     1     1     2   511     0  3.722214871E+01  2.630136083E+01 -3.729977008E+01  5.889416596E+01  0.000000000E+00  0.00000E+00  9.000E+00
#pdf  -1  1 0.39262584E-03 0.13108092E+00 0.93261527E+02 0.20902286E+01 0.31752896E+00
#rwgt            1           5   927.77573960487837         54217137    18392891           0
</event>
<event>
      6  10013  3.31628E+03  1.12940E+00 -1.00000E+00  5.70142E-01
       1    -1     0     0   501     0  0.000000000E+00  0.000000000E+00  4.691453363E+01  4.691453363E+01  0.000000000E+00  0.00000E+00  9.000E+00
      -1    -1     0     0     0   511  0.000000000E+00  0.000000000E+00 -4.504505447E+01  4.504505447E+01  0.000000000E+00  0.00000E+00  9.000E+00
      23     2     1     2     0     0  9.319227646E-01  6.380133226E-01  2.682709162E+00  9.056786828E+01  9.052108205E+01  0.00000E+00  9.000E+00
      13     1     3     3     0     0  1.753933019E+01  1.520979970E+01 -3.785105238E+01  4.440359716E+01  1.056583668E-01  0.00000E+00  9.000E+00
     -13     1     3     3     0     0 -1.660740743E+01 -1.457178638E+01  4.053376154E+01  4.616427112E+01  1.056583668E-01  0.00000E+00  9.000E+00
      21     1     1     2   501   511 -9.319227646E-01 -6.380133226E-01 -8.132299988E-01  1.391719824E+00  1.825012075E-08  0.00000E+00  9.000E+00
#pdf   1 -1 0.71725631E-02 0.67598707E-02 0.90521082E+02 0.74959862E+00 0.65063931E+00
#rwgt            1           6   495.11604516961233         54217137    18392929           0
</event>
<event>
      6  10013  3.31628E+03  5.31161E+00 -1.00000E+00  2.33934E-01
      -2    -1     0     0     0   501  0.000000000E+00  0.000000000E+00  1.535192228E+00  1.535192228E+00  0.000000000E+00  0.00000E+00  9.000E+00
       2    -1     0     0   511     0  0.000000000E+00  0.000000000E+00 -1.648238712E+03  1.648238712E+03  0.000000000E+00  0.00000E+00  9.000E+00
      23     2     1     2     0     0  4.438291485E+00  2.917999574E+00 -1.386949997E+03  1.389966080E+03  9.136298522E+01  0.00000E+00  9.000E+00
      13     1     3     3     0     0 -4.640314377E+00  1.785934392E+01 -1.335483670E+03  1.335611145E+03  1.056583668E-01  0.00000E+00  9.000E+00
     -13     1     3     3     0     0  9.078605862E+00 -1.494134435E+01 -5.146632750E+01  5.435493432E+01  1.056583668E-01  0.00000E+00  9.000E+00
      21     1     1     2   511   501 -4.438291485E+00 -2.917999574E+00 -2.597535224E+02  2.598078243E+02  3.814697266E-06  0.00000E+00  9.000E+00
#pdf  -2  2 0.23161526E-03 0.21324885E+00 0.91362985E+02 0.25232903E+01 0.47201294E+00
#rwgt            1           4   1609.2747256231205         54217137    18393151           0
</event>
<event>
      6  10013  3.31628E+03  1.73732E+00 -1.00000E+00  3.93988E-01
       2    -1     0     0   501     0  0.000000000E+00  0.000000000E+00  3.552505819E+02  3.552505819E+02  0.000000000E+00  0.00000E+00  9.000E+00
      -2    -1     0     0     0   511  0.000000000E+00  0.000000000E+00 -4.257459482E-01  4.257459482E-01  0.000000000E+00  0.00000E+00  9.000E+00
      23     2     1     2     0     0  1.238814731E+00  1.218037790E+00  3.482376067E+02  3.488638490E+02  2.082153174E+01  0.00000E+00  9.000E+00
      13     1     3     3     0     0 -9.584257381E+00 -5.557023580E-01  1.323238709E+02  1.326717181E+02  1.056583668E-01  0.00000E+00  9.000E+00
     -13     1     3     3     0     0  1.082307211E+01  1.773740148E+00  2.159137357E+02  2.161921309E+02  1.056583668E-01  0.00000E+00  9.000E+00
      21     1     1     2   501   511 -1.238814731E+00 -1.218037790E+00  6.587229251E+00  6.812478785E+00  3.039252468E-07  0.00000E+00  9.000E+00
#pdf   2 -2 0.53437496E-01 0.48005672E-04 0.20821532E+02 0.62624528E+00 0.27863704E+01
#rwgt            1           7   1700.6580672560247         54217137    18393274           0
</event>
<event>
      6  10013  3.31628E+03  4.37917E+00 -1.00000E+00  2.54434E-01
       2    -1     0     0   501     0  0.000000000E+00  0.000000000E+00  1.638509855E+03  1.638509855E+03  0.000000000E+00  0.00000E+00  9.000E+00
      21    -1     0     0   511   501  0.000000000E+00  0.000000000E+00 -8.767402640E-01  8.767402640E-01  0.000000000E+00  0.00000E+00  9.000E+00
      23     2     1     2     0     0  3.971919076E+00  1.844183893E+00  1.630209175E+03  1.630767312E+03  4.243696452E+01  0.00000E+00  9.000E+00
      13     1     3     3     0     0  1.162963386E+01  1.517835910E+01  1.350794892E+03  1.350930229E+03  1.056583668E-01  0.00000E+00  9.000E+00
     -13     1     3     3     0     0 -7.657714780E+00 -1.333417521E+01  2.794142821E+02  2.798370830E+02  1.056583668E-01  0.00000E+00  9.000E+00
       2     1     1     2   511     0 -3.971919076E+00 -1.844183893E+00  7.423939911E+00  8.619282985E+00  0.000000000E+00  0.00000E+00  9.000E+00
#pdf   2 -2 0.24951934E+00 0.42706867E-04 0.42436965E+02 0.44946096E+00 0.36796250E+01
#rwgt            1           7   2992.0442895591791         54217137    18393421           0
</event>
<event>
      6  10013  3.31628E+03  3.04362E+00 -1.00000E+00  2.94841E-01
      -2    -1     0     0     0   511  0.000000000E+00  0.000000000E+00  5.076533088E+00  5.076533088E+00  0.000000000E+00  0.00000E+00  9.000E+00
       2    -1     0     0   501     0  0.000000000E+00  0.000000000E+00 -4.468186099E+02  4.468186099E+02  0.000000000E+00  0.00000E+00  9.000E+00
      23     2     1     2     0     0 -1.396333798E+00 -2.704414156E+00 -4.366121636E+02  4.459302781E+02  9.063315001E+01  0.00000E+00  9.000E+00
      13     1     3     3     0     0  1.351913517E+01  3.051706653E+01 -7.039714568E+01  7.790909862E+01  1.056583668E-01  0.00000E+00  9.000E+00
     -13     1     3     3     0     0 -1.491546897E+01 -3.322148069E+01 -3.662150180E+02  3.680211795E+02  1.056583668E-01  0.00000E+00  9.000E+00
      21     1     1     2   501   511  1.396333798E+00  2.704414156E+00 -5.129913172E+00  5.964864890E+00  0.000000000E+00  0.00000E+00  9.000E+00
#pdf  -2  2 0.71637421E-03 0.67849633E-01 0.90633150E+02 0.16490796E+01 0.62310792E+00
#rwgt            1           4   1037.5721403811110         54217137    18393520           0
</event>
<event>
      6  10013  3.31628E+03  1.67022E+02 -1.00000E+00  1.14554E-01
      21    -1     0     0   511   501  0.000000000E+00  0.000000000E+00  1.980848606E+02  1.980848606E+02  0.000000000E+00  0.00000E+00  9.000E+00
       3    -1     0     0   501     0  0.000000000E+00  0.000000000E+00 -2.528232939E+02  2.528232939E+02  0.000000000E+00  0.00000E+00  9.000E+00
      23     2     1     2     0     0  2.987047295E+01  1.643287675E+02 -1.646266488E+02  2.509791450E+02  8.940027278E+01  0.00000E+00  9.000E+00
      13     1     3     3     0     0 -1.090486079E+01  6.315654255E+01 -1.138713276E+02  1.306688764E+02  1.056583668E-01  0.00000E+00  9.000E+00
     -13     1     3     3     0     0  4.077533375E+01  1.011722249E+02 -5.075532118E+01  1.203102686E+02  1.056583668E-01  0.00000E+00  9.000E+00
       3     1     1     2   511     0 -2.987047295E+01 -1.643287675E+02  1.098882154E+02  1.999290095E+02  0.000000000E+00  0.00000E+00  9.000E+00
#pdf  -3  3 0.31346723E-02 0.15086859E-01 0.89400273E+02 0.86617589E+00 0.38397376E+00
#rwgt            1           3   479.34957412899570         54217137    18393713           0
</event>
<event>
      6  10013  3.31628E+03  1.50643E+01 -1.00000E+00  1.77161E-01
      21    -1     0     0   511   501  0.000000000E+00  0.000000000E+00  1.903861924E+01  1.903861924E+01  0.000000000E+00  0.00000E+00  9.000E+00
       2    -1     0     0   501     0  0.000000000E+00  0.000000000E+00 -3.585662906E+02  3.585662906E+02  0.000000000E+00  0.00000E+00  9.000E+00
      23     2     1     2     0     0  8.434828586E+00 -1.248144118E+01 -3.488840207E+02  3.598714956E+02  8.695113975E+01  0.00000E+00  9.000E+00
      13     1     3     3     0     0  1.489886397E+01  3.585506457E+01 -1.332450849E+02  1.387869793E+02  1.056583668E-01  0.00000E+00  9.000E+00
     -13     1     3     3     0     0 -6.464035385E+00 -4.833650574E+01 -2.156389358E+02  2.210845162E+02  1.056583668E-01  0.00000E+00  9.000E+00
       2     1     1     2   511     0 -8.434828586E+00  1.248144118E+01  9.356349377E+00  1.773341425E+01  0.000000000E+00  0.00000E+00  9.000E+00
#pdf  -2  2 0.83278453E-03 0.53719406E-01 0.86951140E+02 0.15443494E+01 0.63086675E+00
#rwgt            1           4   1094.3412474048359         54217137    18393740           0
</event>
<event>
      6  10013  3.31628E+03  9.13447E-01 -1.00000E+00  7.30348E-01
      -2    -1     0     0     0   501  0.000000000E+00  0.000000000E+00  1.426910585E-01  1.426910585E-01  0.000000000E+00  0.00000E+00  9.000E+00
       2    -1     0     0   511     0  0.000000000E+00  0.000000000E+00 -2.618336674E+03  2.618336674E+03  0.000000000E+00  0.00000E+00  9.000E+00
      23     2     1     2     0     0 -4.773412245E-01 -7.788009774E-01 -2.379511359E+03  2.379794994E+03  3.672965814E+01  0.00000E+00  9.000E+00
      13     1     3     3     0     0  1.774915076E+01  2.785208551E+00 -1.294963604E+03  1.295088235E+03  1.056583668E-01  0.00000E+00  9.000E+00
     -13     1     3     3     0     0 -1.822649198E+01 -3.564009528E+00 -1.084547756E+03  1.084706759E+03  1.056583668E-01  0.00000E+00  9.000E+00
      21     1     1     2   511   501  4.773412245E-01  7.788009774E-01 -2.386826231E+02  2.386843710E+02  2.697398305E-06  0.00000E+00  9.000E+00
#pdf  -2  2 0.21811273E-04 0.36598733E+00 0.36729658E+02 0.43305287E+01 0.28412361E+00
#rwgt            1           4   9585.4122955755320         54217137    18393828           0
</event>
<event>
      6  10013  3.31628E+03  4.64647E+00 -1.00000E+00  2.48930E-01
       1    -1     0     0   511     0  0.000000000E+00  0.000000000E+00  4.115459341E+02  4.115459341E+02  0.000000000E+00  0.00000E+00  9.000E+00
      -1    -1     0     0     0   501  0.000000000E+00  0.000000000E+00 -8.833674186E+00  8.833674186E+00  0.000000000E+00  0.00000E+00  9.000E+00
      23     2     1     2     0     0 -1.561651413E+00  4.376177516E+00  2.271055405E+02  2.447114279E+02  9.102289135E+01  0.00000E+00  9.000E+00
      13     1     3     3     0     0  3.328271104E+01  1.187296742E+01  1.900101914E+02  1.932681821E+02  1.056583668E-01  0.00000E+00  9.000E+00
     -13     1     3     3     0     0 -3.484436245E+01 -7.496789899E+00  3.709534907E+01  5.144324582E+01  1.056583668E-01  0.00000E+00  9.000E+00
      21     1     1     2   511   501  1.561651413E+00 -4.376177516E+00  1.756067194E+02  1.756681804E+02  2.697398305E-06  0.00000E+00  9.000E+00
#pdf   1 -1 0.36246418E-01 0.13525379E-02 0.91022891E+02 0.47985348E+00 0.12922833E+01
#rwgt            1           6   928.29056085489765         54217137    18394212           0
</event>
<event>
      6  10013  3.31628E+03  4.65402E+00 -1.00000E+00  2.48782E-01
       2    -1     0     0   501     0  0.000000000E+00  0.000000000E+00  1.035581862E+03  1.035581862E+03  0.000000000E+00  0.00000E+00  9.000E+00
      -2    -1     0     0     0   511  0.000000000E+00  0.000000000E+00 -2.408262294E+00  2.408262294E+00  0.000000000E+00  0.00000E+00  9.000E+00
      23     2     1     2     0     0 -4.424208985E+00  1.444405922E+00  1.017199137E+03  1.021351513E+03  9.188671519E+01  0.00000E+00  9.000E+00
      13     1     3     3     0     0  2.919601907E+01  1.683466813E+01  8.214329463E+02  8.221240235E+02  1.056583668E-01  0.00000E+00  9.000E+00
     -13     1     3     3     0     0 -3.362022805E+01 -1.539026221E+01  1.957661908E+02  1.992274894E+02  1.056583668E-01  0.00000E+00  9.000E+00
      21     1     1     2   501   511  4.424208985E+00 -1.444405922E+00  1.597446235E+01  1.663861115E+01  1.685873940E-07  0.00000E+00  9.000E+00
#pdf   2 -2 0.15661083E+00 0.31900460E-03 0.91886715E+02 0.54647255E+00 0.22456836E+01
#rwgt            1           7   1811.2257961905455         54217137    18394361           0
</event>
<event>
      6  10013  3.31628E+03  1.40990E+01 -1.00000E+00  1.79907E-01
      21    -1     0     0   501   511  0.000000000E+00  0.000000000E+00  2.005388994E+02  2.005388994E+02  0.000000000E+00  0.00000E+00  9.000E+00
      -1    -1     0     0     0   501  0.000000000E+00  0.000000000E+00 -1.429105785E+01  1.429105785E+01  0.000000000E+00  0.00000E+00  9.000E+00
      23     2     1     2     0     0  4.823260552E+00 -1.324835859E+01  1.590585960E+02  1.842025525E+02  9.182679645E+01  0.00000E+00  9.000E+00
      13     1     3     3     0     0  5.440651264E-01 -3.440378278E+01  1.589361858E+02  1.626180758E+02  1.056583668E-01  0.00000E+00  9.000E+00
     -13     1     3     3     0     0  4.279195426E+00  2.115542420E+01  1.224102404E-01  2.158447670E+01  1.056583668E-01  0.00000E+00  9.000E+00
      -1     1     1     2     0   511 -4.823260552E+00  1.324835859E+01  2.718924559E+01  3.062740477E+01  0.000000000E+00  0.00000E+00  9.000E+00
#pdf   1 -1 0.26098864E-01 0.19117476E-02 0.91826796E+02 0.51913779E+00 0.11250061E+01
#rwgt            1           6   812.31382187438555         54217137    18394499           0
</event>
<event>
      6  10013  3.31628E+03  3.30791E+01 -1.00000E+00  1.50116E-01
       4    -1     0     0   501     0  0.000000000E+00  0.000000000E+00  4.801180875E+01  4.801180875E+01  0.000000000E+00  0.00000E+00  9.000E+00
      -4    -1     0     0     0   511  0.000000000E+00  0.000000000E+00 -9.360451871E+01  9.360451871E+01  0.000000000E+00  0.00000E+00  9.000E+00
      23     2     1     2     0     0 -8.936179421E+00 -3.184918455E+01 -2.109648250E+01  1.004545610E+02  9.247611254E+01  0.00000E+00  9.000E+00
      13     1     3     3     0     0  1.911690712E+01 -3.306717206E+00 -4.830851325E+01  5.205875654E+01  1.056583668E-01  0.00000E+00  9.000E+00
     -13     1     3     3     0     0 -2.805308654E+01 -2.854246734E+01  2.721203075E+01  4.839580444E+01  1.056583668E-01  0.00000E+00  9.000E+00
      21     1     1     2   501   511  8.936179421E+00  3.184918455E+01 -2.449622746E+01  4.116176647E+01  6.743495762E-07  0.00000E+00  9.000E+00
#pdf   4 -4 0.57478105E-02 0.88037963E-02 0.92476113E+02 0.49361085E+00 0.38059690E+00
#rwgt            1           9   144.14681273501344         54217137    18394548           0
</event>
<event>
      6  10013  3.31628E+03  8.32819E+01 -1.00000E+00  1.27486E-01
      21    -1     0     0   511   501  0.000000000E+00  0.000000000E+00  1.864126376E+02  1.864126376E+02  0.000000000E+00  0.00000E+00  9.000E+00
       1    -1     0     0   501     0  0.000000000E+00  0.000000000E+00 -5.681217020E+01  5.681217020E+01  0.000000000E+00  0.00000E+00  9.000E+00
      23     2     1     2     0     0 -8.045997366E+01 -2.149571913E+01  7.273174735E+01  1.423787636E+02  8.969911904E+01  0.00000E+00  9.000E+00
      13     1     3     3     0     0 -8.959078979E+01  6.395295603E+00  3.972462784E+01  9.821133663E+01  1.056583668E-01  0.00000E+00  9.000E+00
     -13     1     3     3     0     0  9.130816129E+00 -2.789101473E+01  3.300711951E+01  4.416742700E+01  1.056583668E-01  0.00000E+00  9.000E+00
       1     1     1     2   511     0  8.045997366E+01  2.149571913E+01  5.686872000E+01  1.008460441E+02  0.000000000E+00  0.00000E+00  9.000E+00
#pdf  -1  1 0.12126190E-01 0.39261353E-02 0.89699119E+02 0.49153581E+00 0.91691663E+00
#rwgt            1           5   568.03942327950972         54217137    18394685           0
</event>
<event>
      6  10013  3.31628E+03  1.61905E+01 -1.00000E+00  1.74269E-01
      21    -1     0     0   501   511  0.000000000E+00  0.000000000E+00  2.363856268E+02  2.363856268E+02  0.000000000E+00  0.00000E+00  9.000E+00
      -4    -1     0     0     0   501  0.000000000E+00  0.000000000E+00 -3.700276926E+01  3.700276926E+01  0.000000000E+00  0.00000E+00  9.000E+00
      23     2     1     2     0     0 -1.613628649E+01 -1.323649221E+00  3.260964999E+01  1.058311385E+02  9.937156949E+01  0.00000E+00  9.000E+00
      13     1     3     3     0     0 -2.371038268E+01  4.238903052E+01  3.727190914E+01  6.122269620E+01  1.056583668E-01  0.00000E+00  9.000E+00
     -13     1     3     3     0     0  7.574096193E+00 -4.371267974E+01 -4.662259152E+00  4.460844233E+01  1.056583668E-01  0.00000E+00  9.000E+00
      -4     1     1     2     0   511  1.613628649E+01  1.323649221E+00  1.667732076E+02  1.675572575E+02  0.000000000E+00  0.00000E+00  9.000E+00
#pdf   4 -4 0.10510698E-01 0.55591199E-02 0.99371569E+02 0.34162467E+00 0.50840427E+00
#rwgt            1           9   267.70442358879245         54217137    18394727           0
</event>
<event>
      6  10013  3.31628E+03  1.04730E+01 -1.00000E+00  1.93408E-01
       1    -1     0     0   511     0  0.000000000E+00  0.000000000E+00  5.088153448E+01  5.088153448E+01  0.000000000E+00  0.00000E+00  9.000E+00
      -1    -1     0     0     0   501  0.000000000E+00  0.000000000E+00 -1.547283808E+01  1.547283808E+01  0.000000000E+00  0.00000E+00  9.000E+00
      23     2     1     2     0     0 -1.043322401E+01 -9.122516052E-01  1.182350076E+01  4.054844650E+01  3.734564201E+01  0.00000E+00  9.000E+00
      13     1     3     3     0     0  1.833778139E+00 -2.552505886E+00 -1.269743759E+01  1.308105935E+01  1.056583668E-01  0.00000E+00  9.000E+00
     -13     1     3     3     0     0 -1.226700215E+01  1.640254280E+00  2.452093835E+01  2.746738716E+01  1.056583668E-01  0.00000E+00  9.000E+00
      21     1     1     2   511   501  1.043322401E+01  9.122516052E-01  2.358519564E+01  2.580592606E+01  0.000000000E+00  0.00000E+00  9.000E+00
#pdf   1 -1 0.38789692E-02 0.21275355E-02 0.37345642E+02 0.82791193E+00 0.93852987E+00
#rwgt            1           6   348.54897909575897         54217137    18394890           0
</event>
<event>
      6  10013  3.31628E+03  1.31647E+00 -1.00000E+00  4.93978E-01
       2    -1     0     0   511     0  0.000000000E+00  0.000000000E+00  2.008086095E+03  2.008086095E+03  0.000000000E+00  0.00000E+00  9.000E+00
      -2    -1     0     0     0   501  0.000000000E+00  0.000000000E+00 -1.141815866E+00  1.141815866E+00  0.000000000E+00  0.00000E+00  9.000E+00
      23     2     1     2     0     0 -1.398508193E-01 -1.309018751E+00  1.822196830E+03  1.824475771E+03  9.115272871E+01  0.00000E+00  9.000E+00
      13     1     3     3     0     0 -2.243296936E+00  3.103837724E+01  1.556187339E+03  1.556498461E+03  1.056583668E-01  0.00000E+00  9.000E+00
     -13     1     3     3     0     0  2.103446117E+00 -3.234739600E+01  2.660094911E+02  2.679773107E+02  1.056583668E-01  0.00000E+00  9.000E+00
      21     1     1     2   511   501  1.398508193E-01  1.309018751E+00  1.847474495E+02  1.847521399E+02  0.000000000E+00  0.00000E+00  9.000E+00
#pdf   2 -2 0.28048403E+00 0.17528490E-03 0.91152729E+02 0.37284953E+00 0.27902209E+01
#rwgt            1           7   2128.0675988601943         54217137    18394951           0
</event>
<event>
      6  10013  3.31628E+03  4.98236E+00 -1.00000E+00  2.42759E-01
       2    -1     0     0   511     0  0.000000000E+00  0.000000000E+00  8.624597985E+02  8.624597985E+02  0.000000000E+00  0.00000E+00  9.000E+00
      -2    -1     0     0     0   501  0.000000000E+00  0.000000000E+00 -2.362422499E+00  2.362422499E+00  0.000000000E+00  0.00000E+00  9.000E+00
      23     2     1     2     0     0 -3.093038845E+00  3.906022081E+00  7.666051394E+02  7.711973194E+02  8.388707751E+01  0.00000E+00  9.000E+00
      13     1     3     3     0     0  2.205351099E+01 -3.175072624E+01  2.830678218E+02  2.856954128E+02  1.056583668E-01  0.00000E+00  9.000E+00
     -13     1     3     3     0     0 -2.514654984E+01  3.565674832E+01  4.835373176E+02  4.855019066E+02  1.056583668E-01  0.00000E+00  9.000E+00
      21     1     1     2   511   501  3.093038845E+00 -3.906022081E+00  9.349223666E+01  9.362490168E+01  1.907348633E-06  0.00000E+00  9.000E+00
#pdf   2 -2 0.11808440E+00 0.35262320E-03 0.83887078E+02 0.58890228E+00 0.21246900E+01
#rwgt            1           7   1627.5131134928893         54217137    18395216           0
</event>
<event>
      6  10013  3.31628E+03  2.17793E+00 -1.00000E+00  3.46444E-01
      -2    -1     0     0     0   501  0.000000000E+00  0.000000000E+00  3.387576690E+01  3.387576690E+01  0.000000000E+00  0.00000E+00  9.000E+00
       2    -1     0     0   511     0  0.000000000E+00  0.000000000E+00 -6.803923766E+01  6.803923766E+01  0.000000000E+00  0.00000E+00  9.000E+00
      23     2     1     2     0     0  1.935876261E+00 -9.978777398E-01 -3.000279173E+01  9.721876917E+01  9.244770517E+01  0.00000E+00  9.000E+00
      13     1     3     3     0     0  8.865110652E+00 -4.030049775E+01 -3.847713600E+01  5.642004488E+01  1.056583668E-01  0.00000E+00  9.000E+00
     -13     1     3     3     0     0 -6.929234391E+00  3.930262001E+01  8.474344274E+00  4.079872429E+01  1.056583668E-01  0.00000E+00  9.000E+00
      21     1     1     2   511   501 -1.935876261E+00  9.978777398E-01 -4.160679028E+00  4.696235392E+00  5.960464478E-08  0.00000E+00  9.000E+00
#pdf  -2  2 0.51690256E-02 0.97835593E-02 0.92447705E+02 0.72183922E+00 0.76705539E+00
#rwgt            1           4   598.66067629033887         54217137    18395311           0
</event>
<event>
      6  10013  3.31628E+03  9.79234E+00 -1.00000E+00  1.96758E-01
       2    -1     0     0   501     0  0.000000000E+00  0.000000000E+00  2.427888039E+03  2.427888039E+03  0.000000000E+00  0.00000E+00  9.000E+00
      -2    -1     0     0     0   511  0.000000000E+00  0.000000000E+00 -3.066447749E-01  3.066447749E-01  0.000000000E+00  0.00000E+00  9.000E+00
      23     2     1     2     0     0  7.432506388E+00  6.375563874E+00  2.330415763E+03  2.330536864E+03  2.164610360E+01  0.00000E+00  9.000E+00
      13     1     3     3     0     0  1.522834205E+00 -4.974894776E+00  1.603629019E+03  1.603637462E+03  1.056583668E-01  0.00000E+00  9.000E+00
     -13     1     3     3     0     0  5.909672183E+00  1.135045865E+01  7.267867445E+02  7.268994017E+02  1.056583668E-01  0.00000E+00  9.000E+00
      21     1     1     2   501   511 -7.432506388E+00 -6.375563874E+00  9.716563075E+01  9.765781979E+01  3.015782986E-06  0.00000E+00  9.000E+00
#pdf   2 -2 0.32666359E+00 0.84873484E-05 0.21646104E+02 0.36637038E+00 0.46757302E+01
#rwgt            1           7   5934.0789431207277         54217137    18395614           0
</event>
<event>
      6  10013  3.31628E+03  2.24112E+01 -1.00000E+00  1.62351E-01
      21    -1     0     0   501   511  0.000000000E+00  0.000000000E+00  2.579520067E+02  2.579520067E+02  0.000000000E+00  0.00000E+00  9.000E+00
      -5    -1     0     0     0   501  0.000000000E+00  0.000000000E+00 -2.831644365E+01  2.831644365E+01  0.000000000E+00  0.00000E+00  9.000E+00
      23     2     1     2     0     0 -6.722757876E+00  2.137906929E+01  4.839121481E+01  1.036437701E+02  8.887103761E+01  0.00000E+00  9.000E+00
      13     1     3     3     0     0  8.795826104E+00 -2.989086342E+01 -4.375700560E-01  3.116140087E+01  1.056583668E-01  0.00000E+00  9.000E+00
     -13     1     3     3     0     0 -1.551858398E+01  5.126993271E+01  4.882878487E+01  7.248236920E+01  1.056583668E-01  0.00000E+00  9.000E+00
      -5     1     1     2     0   511  6.722757876E+00 -2.137906929E+01  1.812443482E+02  1.826246803E+02  0.000000000E+00  0.00000E+00  9.000E+00
#pdf   5 -5 0.11339985E-01 0.41211774E-02 0.88871038E+02 0.19987624E+00 0.39412380E+00
#rwgt            1          10   93.920418528546037         54217137    18395647           0
</event>
<event>
      6  10013  3.31628E+03  9.72012E+00 -1.00000E+00  1.97134E-01
       3    -1     0     0   501     0  0.000000000E+00  0.000000000E+00  2.152777235E+02  2.152777235E+02  0.000000000E+00  0.00000E+00  9.000E+00
      -3    -1     0     0     0   511  0.000000000E+00  0.000000000E+00 -1.699391987E+01  1.699391987E+01  0.000000000E+00  0.00000E+00  9.000E+00
      23     2     1     2     0     0 -9.709465310E+00 -4.549642147E-01  2.021233890E+02  2.218206566E+02  9.086285590E+01  0.00000E+00  9.000E+00
      13     1     3     3     0     0  2.156082248E+01  3.537834883E+01  1.196120681E+02  1.265841800E+02  1.056583668E-01  0.00000E+00  9.000E+00
     -13     1     3     3     0     0 -3.127028779E+01 -3.583331304E+01  8.251132092E+01  9.523647655E+01  1.056583668E-01  0.00000E+00  9.000E+00
      21     1     1     2   501   511  9.709465310E+00  4.549642147E-01 -3.839585389E+00  1.045098680E+01  1.685873940E-07  0.00000E+00  9.000E+00
#pdf   3 -3 0.32426069E-01 0.15065785E-02 0.90862856E+02 0.22321016E+00 0.11908023E+01
#rwgt            1           8   344.49689333470650         54217137    18395862           0
</event>
<event>
      6  10013  3.31628E+03  1.62795E+01 -1.00000E+00  1.74053E-01
       2    -1     0     0   511     0  0.000000000E+00  0.000000000E+00  4.853073503E+02  4.853073503E+02  0.000000000E+00  0.00000E+00  9.000E+00
      -2    -1     0     0     0   501  0.000000000E+00  0.000000000E+00 -6.324838670E+00  6.324838670E+00  0.000000000E+00  0.00000E+00  9.000E+00
      23     2     1     2     0     0  1.206784510E+01  1.092654351E+01  3.908367594E+02  4.019957239E+02  9.263998746E+01  0.00000E+00  9.000E+00
      13     1     3     3     0     0 -5.815945682E+00  2.479320847E+00 -3.456770040E+00  7.206433156E+00  1.056583668E-01  0.00000E+00  9.000E+00
     -13     1     3     3     0     0  1.788379079E+01  8.447222668E+00  3.942935295E+02  3.947892908E+02  1.056583668E-01  0.00000E+00  9.000E+00
      21     1     1     2   511   501 -1.206784510E+01 -1.092654351E+01  8.814575223E+01  8.963646510E+01  0.000000000E+00  0.00000E+00  9.000E+00
#pdf   2 -2 0.60066718E-01 0.84542749E-03 0.92639987E+02 0.62727130E+00 0.15518835E+01
#rwgt            1           7   738.13459783765290         54217137    18395903           0
</event>
<event>
      6  10013  3.31628E+03  1.25285E+01 -1.00000E+00  1.85029E-01
      21    -1     0     0   511   501  0.000000000E+00  0.000000000E+00  3.286377880E+00  3.286377880E+00  0.000000000E+00  0.00000E+00  9.000E+00
       2    -1     0     0   501     0  0.000000000E+00  0.000000000E+00 -6.082603508E+02  6.082603508E+02  0.000000000E+00  0.00000E+00  9.000E+00
      23     2     1     2     0     0 -5.637768551E+00 -1.118831070E+01 -5.918642247E+02  5.934131072E+02  4.097429151E+01  0.00000E+00  9.000E+00
      13     1     3     3     0     0 -2.278106614E+01 -7.373467273E+00 -4.114099046E+02  4.121061341E+02  1.056583668E-01  0.00000E+00  9.000E+00
     -13     1     3     3     0     0  1.714329759E+01 -3.814843424E+00 -1.804543201E+02  1.813069731E+02  1.056583668E-01  0.00000E+00  9.000E+00
       2     1     1     2   511     0  5.637768551E+00  1.118831070E+01 -1.310974824E+01  1.813362152E+01  0.000000000E+00  0.00000E+00  9.000E+00
#pdf  -2  2 0.11393767E-03 0.87190437E-01 0.40974292E+02 0.26513282E+01 0.62108020E+00
#rwgt            1           4   2663.1452623641267         54217137    18396031           0
</event>
<event>
      6  10013  3.31628E+03  3.16835E+00 -1.00000E+00  2.89721E-01
      -2    -1     0     0     0   511  0.000000000E+00  0.000000000E+00  7.890009528E+02  7.890009528E+02  0.000000000E+00  0.00000E+00  9.000E+00
       2    -1     0     0   501     0  0.000000000E+00  0.000000000E+00 -2.537278017E+00  2.537278017E+00  0.000000000E+00  0.00000E+00  9.000E+00
      23     2     1     2     0     0 -2.232150037E+00 -2.248539246E+00  7.176359078E+02  7.226375782E+02  8.481588794E+01  0.00000E+00  9.000E+00
      13     1     3     3     0     0  1.409389835E+01 -1.962724950E+01  6.575419425E+02  6.579857781E+02  1.056583668E-01  0.00000E+00  9.000E+00
     -13     1     3     3     0     0 -1.632604839E+01  1.737871025E+01  6.009396535E+01  6.465180014E+01  1.056583668E-01  0.00000E+00  9.000E+00
      21     1     1     2   501   511  2.232150037E+00  2.248539246E+00  6.882776692E+01  6.890065255E+01  9.536743164E-07  0.00000E+00  9.000E+00
#pdf  -2  2 0.11071305E+00 0.38447571E-03 0.84815888E+02 0.75232022E-01 0.21059262E+01
#rwgt            1           4   289.16263653618120         54217137    18396086           0
</event>
<event>
      6  10013  3.31628E+03  3.32714E+00 -1.00000E+00  2.83736E-01
      -4    -1     0     0     0   501  0.000000000E+00  0.000000000E+00  2.464040363E+01  2.464040363E+01  0.000000000E+00  0.00000E+00  9.000E+00
       4    -1     0     0   511     0  0.000000000E+00  0.000000000E+00 -6.567826365E+00  6.567826365E+00  0.000000000E+00  0.00000E+00  9.000E+00
      23     2     1     2     0     0 -1.207856602E+00 -3.100156699E+00  1.701111508E+01  2.771586817E+01  2.162686809E+01  0.00000E+00  9.000E+00
      13     1     3     3     0     0 -6.371029383E+00  6.279303059E+00  1.817886027E+00  9.128829914E+00  1.056583668E-01  0.00000E+00  9.000E+00
     -13     1     3     3     0     0  5.163172781E+00 -9.379459758E+00  1.519322905E+01  1.858703826E+01  1.056583668E-01  0.00000E+00  9.000E+00
      21     1     1     2   511   501  1.207856602E+00  3.100156699E+00  1.061462187E+00  3.492361823E+00  2.980232239E-08  0.00000E+00  9.000E+00
#pdf  -4  4 0.34005311E-02 0.81386768E-03 0.21626868E+02 0.48389047E+00 0.87249626E+00
#rwgt            1           2   404.09232488599935         54217137    18396245           0
</event>
<event>
      6  10013  3.31628E+03  3.35935E+00 -1.00000E+00  2.82588E-01
       1    -1     0     0   511     0  0.000000000E+00  0.000000000E+00  3.281771870E+02  3.281771870E+02  0.000000000E+00  0.00000E+00  9.000E+00
      -1    -1     0     0     0   501  0.000000000E+00  0.000000000E+00 -6.619066346E+00  6.619066346E+00  0.000000000E+00  0.00000E+00  9.000E+00
      23     2     1     2     0     0  3.354966698E+00 -1.715078514E-01  3.019091644E+02  3.148621946E+02  8.931837895E+01  0.00000E+00  9.000E+00
      13     1     3     3     0     0 -9.319744959E+00  5.825717448E+00 -1.531731762E+00  1.109747700E+01  1.056583668E-01  0.00000E+00  9.000E+00
     -13     1     3     3     0     0  1.267471166E+01 -5.997225299E+00  3.034408962E+02  3.037647176E+02  1.056583668E-01  0.00000E+00  9.000E+00
      21     1     1     2   511   501 -3.354966698E+00  1.715078514E-01  1.964895620E+01  1.993405870E+01  3.371747881E-07  0.00000E+00  9.000E+00
#pdf   1 -1 0.47410430E-01 0.99568295E-03 0.89318379E+02 0.45041040E+00 0.14541266E+01
#rwgt            1           6   723.85920335758249         54217137    18396335           0
</event>
<event>
      6  10013  3.31628E+03  1.10591E+01 -1.00000E+00  1.90780E-01
      21    -1     0     0   501   511  0.000000000E+00  0.000000000E+00  1.208107258E+02  1.208107258E+02  0.000000000E+00  0.00000E+00  9.000E+00
      -1    -1     0     0     0   501  0.000000000E+00  0.000000000E+00 -2.571440582E+01  2.571440582E+01  0.000000000E+00  0.00000E+00  9.000E+00
      23     2     1     2     0     0 -1.055506550E+01  3.300499488E+00  9.790175405E+01  1.351157862E+02  9.246198958E+01  0.00000E+00  9.000E+00
      13     1     3     3     0     0  2.847198291E+01  1.496893407E+01  8.728077245E+01  9.301971405E+01  1.056583668E-01  0.00000E+00  9.000E+00
     -13     1     3     3     0     0 -3.902704841E+01 -1.166843458E+01  1.062098160E+01  4.209607211E+01  1.056583668E-01  0.00000E+00  9.000E+00
      -1     1     1     2     0   511  1.055506550E+01 -3.300499488E+00 -2.805434030E+00  1.140934550E+01  0.000000000E+00  0.00000E+00  9.000E+00
#pdf   1 -1 0.17797575E-01 0.28423591E-02 0.92461990E+02 0.57285204E+00 0.95482717E+00
#rwgt            1           6   866.12072737994856         54217137    18396431           0
</event>
<event>
      6  10013  3.31628E+03  6.54011E+00 -1.00000E+00  2.19737E-01
       2    -1     0     0   501     0  0.000000000E+00  0.000000000E+00  1.205438064E+02  1.205438064E+02  0.000000000E+00  0.00000E+00  9.000E+00
      21    -1     0     0   511   501  0.000000000E+00  0.000000000E+00 -1.827065967E+00  1.827065967E+00  0.000000000E+00  0.00000E+00  9.000E+00
      23     2     1     2     0     0  2.451817962E+00 -6.063134625E+00  9.460212667E+01  9.738512424E+01  2.217040908E+01  0.00000E+00  9.000E+00
      13     1     3     3     0     0 -2.391059288E+00  3.117611190E+00  2.409911773E+00  4.610369020E+00  1.056583668E-01  0.00000E+00  9.000E+00
     -13     1     3     3     0     0  4.842877250E+00 -9.180745815E+00  9.219221490E+01  9.277475522E+01  1.056583668E-01  0.00000E+00  9.000E+00
       2     1     1     2   511     0 -2.451817962E+00  6.063134625E+00  2.411461372E+01  2.498574809E+01  0.000000000E+00  0.00000E+00  9.000E+00
#pdf   2 -2 0.14164790E-01 0.20532913E-03 0.22170409E+02 0.65112746E+00 0.18290061E+01
#rwgt            1           7   1121.5268347747367         54217137    18396599           0
</event>
<event>
      6  10013  3.31628E+03  1.83436E+01 -1.00000E+00  1.69484E-01
       5    -1     0     0   511     0  0.000000000E+00  0.000000000E+00  3.313768442E+02  3.313768442E+02  0.000000000E+00  0.00000E+00  9.000E+00
      -5    -1     0     0     0   501  0.000000000E+00  0.000000000E+00 -9.352686839E+00  9.352686839E+00  0.000000000E+00  0.00000E+00  9.000E+00
      23     2     1     2     0     0  1.834223100E+01  2.236359315E-01  2.359363588E+02  2.527090987E+02  8.865345849E+01  0.00000E+00  9.000E+00
      13     1     3     3     0     0  2.763370559E+01  2.856071729E+01  2.082788233E+02  2.120363546E+02  1.056583668E-01  0.00000E+00  9.000E+00
     -13     1     3     3     0     0 -9.291474590E+00 -2.833708136E+01  2.765753547E+01  4.067274409E+01  1.056583668E-01  0.00000E+00  9.000E+00
      21     1     1     2   511   501 -1.834223100E+01 -2.236359315E-01  8.608779853E+01  8.802043233E+01  9.536743164E-07  0.00000E+00  9.000E+00
#pdf   5 -5 0.36808427E-01 0.12634481E-02 0.88653458E+02 0.68667698E-01 0.75274179E+00
#rwgt            1          10   73.576258680813211         54217137    18396670           0
</event>
<event>
      6  10013  3.31628E+03  2.32680E+00 -1.00000E+00  3.34765E-01
      -1    -1     0     0     0   511  0.000000000E+00  0.000000000E+00  7.962290458E+01  7.962290458E+01  0.000000000E+00  0.00000E+00  9.000E+00
       1    -1     0     0   501     0  0.000000000E+00  0.000000000E+00 -4.723264710E+01  4.723264710E+01  0.000000000E+00  0.00000E+00  9.000E+00
      23     2     1     2     0     0 -2.021951914E+00  1.151391380E+00 -6.574345928E+00  8.782153690E+01  8.754419642E+01  0.00000E+00  9.000E+00
      13     1     3     3     0     0 -3.979736484E+01  1.415873209E+01  1.178285804E+01  4.385369825E+01  1.056583668E-01  0.00000E+00  9.000E+00
     -13     1     3     3     0     0  3.777541293E+01 -1.300734071E+01 -1.835720397E+01  4.396783865E+01  1.056583668E-01  0.00000E+00  9.000E+00
      21     1     1     2   501   511  2.021951914E+00 -1.151391380E+00  3.896460341E+01  3.903401479E+01  4.768371582E-07  0.00000E+00  9.000E+00
#pdf  -1  1 0.62475776E-02 0.72586584E-02 0.87544196E+02 0.67247531E+00 0.74472675E+00
#rwgt            1           5   610.94317924773566         54217137    18396879           0
</event>
<event>
      6  10013  3.31628E+03  7.19128E+00 -1.00000E+00  2.13842E-01
       1    -1     0     0   501     0  0.000000000E+00  0.000000000E+00  2.162761282E+01  2.162761282E+01  0.000000000E+00  0.00000E+00  9.000E+00
      -1    -1     0     0     0   511  0.000000000E+00  0.000000000E+00 -1.119648242E+02  1.119648242E+02  0.000000000E+00  0.00000E+00  9.000E+00
      23     2     1     2     0     0  4.578448996E+00 -5.545474927E+00 -7.717223097E+01  1.185913972E+02  8.975885339E+01  0.00000E+00  9.000E+00
      13     1     3     3     0     0 -3.776489511E+01  1.657859755E+01 -2.690966229E+01  4.924609922E+01  1.056583668E-01  0.00000E+00  9.000E+00
     -13     1     3     3     0     0  4.234334411E+01 -2.212407248E+01 -5.026256868E+01  6.934529795E+01  1.056583668E-01  0.00000E+00  9.000E+00
      21     1     1     2   501   511 -4.578448996E+00  5.545474927E+00 -1.316498040E+01  1.500103984E+01  1.685873940E-07  0.00000E+00  9.000E+00
#pdf   1 -1 0.31759131E-02 0.15010642E-01 0.89758853E+02 0.98755388E+00 0.44104923E+00
#rwgt            1           6   648.97588489459838         54217137    18397031           0
</event>
<event>
      6  10013  3.31628E+03  3.68761E+00 -1.00000E+00  2.71963E-01
       1    -1     0     0   501     0  0.000000000E+00  0.000000000E+00  1.422970799E+01  1.422970799E+01  0.000000000E+00  0.00000E+00  9.000E+00
      -1    -1     0     0     0   511  0.000000000E+00  0.000000000E+00 -1.460445336E+02  1.460445336E+02  0.000000000E+00  0.00000E+00  9.000E+00
      23     2     1     2     0     0 -1.369430523E-01  3.685061805E+00 -1.233945930E+02  1.510819214E+02  8.709720403E+01  0.00000E+00  9.000E+00
      13     1     3     3     0     0  1.367325732E+00  1.675057895E+01 -1.334637665E+02  1.345178041E+02  1.056583668E-01  0.00000E+00  9.000E+00
     -13     1     3     3     0     0 -1.504268784E+00 -1.306551715E+01  1.006917352E+01  1.656411730E+01  1.056583668E-01  0.00000E+00  9.000E+00
      21     1     1     2   501   511  1.369430523E-01 -3.685061805E+00 -8.420232653E+00  9.192320264E+00  0.000000000E+00  0.00000E+00  9.000E+00
#pdf   1 -1 0.21278881E-02 0.21094679E-01 0.87097204E+02 0.11343834E+01 0.36723682E+00
#rwgt            1           6   444.47296063433498         54217137    18397099           0
</event>
<event>
      6  10013  3.31628E+03  1.10014E+01 -1.00000E+00  1.91029E-01
      21    -1     0     0   511   501  0.000000000E+00  0.000000000E+00  1.282748588E+02  1.282748588E+02  0.000000000E+00  0.00000E+00  9.000E+00
       2    -1     0     0   501     0  0.000000000E+00  0.000000000E+00 -4.292548250E+00  4.292548250E+00  0.000000000E+00  0.00000E+00  9.000E+00
      23     2     1     2     0     0 -1.082411265E+01  1.967212975E+00  5.558923670E+01  6.329516230E+01  2.819721604E+01  0.00000E+00  9.000E+00
      13     1     3     3     0     0 -2.023651762E+01  3.786442097E+00  4.016560369E+01  4.513469477E+01  1.056583668E-01  0.00000E+00  9.000E+00
     -13     1     3     3     0     0  9.412404969E+00 -1.819229123E+00  1.542363301E+01  1.816046753E+01  1.056583668E-01  0.00000E+00  9.000E+00
       2     1     1     2   511     0  1.082411265E+01 -1.967212975E+00  6.839307385E+01  6.927224474E+01  0.000000000E+00  0.00000E+00  9.000E+00
#pdf  -2  2 0.85194765E-02 0.55222092E-03 0.28197216E+02 0.50536626E+00 0.14663978E+01
#rwgt            1           4   777.98424399122166         54217137    18397279           0
</event>
<event>
      6  10013  3.31628E+03  6.27966E+00 -1.00000E+00  2.22366E-01
       1    -1     0     0   501     0  0.000000000E+00  0.000000000E+00  8.760276341E+00  8.760276341E+00  0.000000000E+00  0.00000E+00  9.000E+00
      -1    -1     0     0     0   511  0.000000000E+00  0.000000000E+00 -3.099356782E+02  3.099356782E+02  0.000000000E+00  0.00000E+00  9.000E+00
      23     2     1     2     0     0  5.070351476E+00  3.704815819E+00 -2.314161731E+02  2.486546516E+02  9.075382335E+01  0.00000E+00  9.000E+00
      13     1     3     3     0     0  2.364849072E+00  3.029582540E+01 -2.194145633E+01  3.748157170E+01  1.056583668E-01  0.00000E+00  9.000E+00
     -13     1     3     3     0     0  2.705502405E+00 -2.659100958E+01 -2.094747168E+02  2.111730799E+02  1.056583668E-01  0.00000E+00  9.000E+00
      21     1     1     2   501   511 -5.070351476E+00 -3.704815819E+00 -6.975922880E+01  7.004130301E+01  0.000000000E+00  0.00000E+00  9.000E+00
#pdf   1 -1 0.13228737E-02 0.36840437E-01 0.90753823E+02 0.13547170E+01 0.26381305E+00
#rwgt            1           6   680.58893743471515         54217137    18397343           0
</event>
<event>
      6  10013  3.31628E+03  1.07629E+00 -1.00000E+00  5.99616E-01
       2    -1     0     0   501     0  0.000000000E+00  0.000000000E+00  1.785167282E+03  1.785167282E+03  0.000000000E+00  0.00000E+00  9.000E+00
      -2    -1     0     0     0   511  0.000000000E+00  0.000000000E+00 -1.794712781E-01  1.794712781E-01  0.000000000E+00  0.00000E+00  9.000E+00
      23     2     1     2     0     0 -8.685373135E-01  6.356453701E-01  1.738778875E+03  1.739125285E+03  3.469325430E+01  0.00000E+00  9.000E+00
      13     1     3     3     0     0  3.341282485E+00 -3.730407903E+00  3.721519739E+01  3.755079483E+01  1.056583668E-01  0.00000E+00  9.000E+00
     -13     1     3     3     0     0 -4.209819799E+00  4.366053273E+00  1.701563678E+03  1.701574490E+03  1.056583668E-01  0.00000E+00  9.000E+00
      21     1     1     2   501   511  8.685373135E-01 -6.356453701E-01  4.620893598E+01  4.622146868E+01  6.743495762E-07  0.00000E+00  9.000E+00
#pdf   2 -2 0.26740244E+00 0.26634099E-04 0.34693254E+02 0.43212340E+00 0.39936623E+01
#rwgt            1           7   7385.3675026883466         54217137    18397402           0
</event>
<event>
      6  10013  3.31628E+03  4.75472E+01 -1.00000E+00  1.40304E-01
      21    -1     0     0   501   511  0.000000000E+00  0.000000000E+00  2.574791623E+02  2.574791623E+02  0.000000000E+00  0.00000E+00  9.000E+00
      -5    -1     0     0     0   501  0.000000000E+00  0.000000000E+00 -2.221800333E+01  2.221800333E+01  0.000000000E+00  0.00000E+00  9.000E+00
      23     2     1     2     0     0  3.386437764E+01  3.337572013E+01  1.697443443E+02  1.987454037E+02  9.179247395E+01  0.00000E+00  9.000E+00
      13     1     3     3     0     0  4.504939487E+01  2.280004778E+01  1.752643044E+02  1.823920988E+02  1.056583668E-01  0.00000E+00  9.000E+00
     -13     1     3     3     0     0 -1.118501724E+01  1.057567235E+01 -5.519960054E+00  1.635330483E+01  1.056583668E-01  0.00000E+00  9.000E+00
      -5     1     1     2     0   511 -3.386437764E+01 -3.337572013E+01  6.551681462E+01  8.095176196E+01  0.000000000E+00  0.00000E+00  9.000E+00
#pdf   5 -5 0.25169205E-01 0.19808790E-02 0.91792474E+02 0.10219802E+00 0.60210812E+00
#rwgt            1          10   113.68149142039124         54217137    18397658           0
</event>
<event>
      6  10013  3.31628E+03  1.41255E+01 -1.00000E+00  1.79828E-01
      21    -1     0     0   511   501  0.000000000E+00  0.000000000E+00  4.568014464E+02  4.568014464E+02  0.000000000E+00  0.00000E+00  9.000E+00
       2    -1     0     0   501     0  0.000000000E+00  0.000000000E+00 -1.512242605E+01  1.512242605E+01  0.000000000E+00  0.00000E+00  9.000E+00
      23     2     1     2     0     0 -1.234278343E+00 -1.407146319E+01  3.087710901E+00  3.310515561E+01  2.978066236E+01  0.00000E+00  9.000E+00
      13     1     3     3     0     0 -8.037704588E+00 -2.110777861E+01  4.996502201E+00  2.313264383E+01  1.056583668E-01  0.00000E+00  9.000E+00
     -13     1     3     3     0     0  6.803426244E+00  7.036315419E+00 -1.908791301E+00  9.972511783E+00  1.056583668E-01  0.00000E+00  9.000E+00
       2     1     1     2   511     0  1.234278343E+00  1.407146319E+01  4.385913094E+02  4.388187168E+02  0.000000000E+00  0.00000E+00  9.000E+00
#pdf  -2  2 0.25154497E-02 0.20862501E-02 0.29780662E+02 0.83715566E+00 0.99847581E+00
#rwgt            1           4   655.66872894347955         54217137    18397746           0
</event>
<event>
      6  10013  3.31628E+03  3.09279E+00 -1.00000E+00  2.92775E-01
       2    -1     0     0   511     0  0.000000000E+00  0.000000000E+00  8.531122618E+02  8.531122618E+02  0.000000000E+00  0.00000E+00  9.000E+00
      -2    -1     0     0     0   501  0.000000000E+00  0.000000000E+00 -3.030948676E+00  3.030948676E+00  0.000000000E+00  0.00000E+00  9.000E+00
      23     2     1     2     0     0  3.037405111E+00  5.826685726E-01  7.094851801E+02  7.155130645E+02  9.262914970E+01  0.00000E+00  9.000E+00
      13     1     3     3     0     0 -2.435887625E+01  1.438503798E+01  6.248456992E+02  6.254857657E+02  1.056583668E-01  0.00000E+00  9.000E+00
     -13     1     3     3     0     0  2.739628136E+01 -1.380236941E+01  8.463948092E+01  9.002729879E+01  1.056583668E-01  0.00000E+00  9.000E+00
      21     1     1     2   511   501 -3.037405111E+00 -5.826685726E-01  1.405961330E+02  1.406301459E+02  2.697398305E-06  0.00000E+00  9.000E+00
#pdf   2 -2 0.10955420E+00 0.46342517E-03 0.92629150E+02 0.59437443E+00 0.19557686E+01
#rwgt            1           7   1704.6562456277923         54217137    18397789           0
</event>
<event>
      6  10013 -3.31628E+03  1.80181E+00 -1.00000E+00  3.85389E-01
      -4    -1     0     0     0   501  0.000000000E+00  0.000000000E+00  1.389038662E+01  1.389038662E+01  0.000000000E+00  0.00000E+00  9.000E+00
       4    -1     0     0   511     0  0.000000000E+00  0.000000000E+00 -9.647711488E+00  9.647711488E+00  0.000000000E+00  0.00000E+00  9.000E+00
      23     2     1     2     0     0  1.799164901E+00 -9.751308676E-02  4.760960140E+00  2.166323212E+01  2.105664696E+01  0.00000E+00  9.000E+00
      13     1     3     3     0     0 -5.521439385E+00 -5.744430808E+00 -4.008494883E+00  8.919863962E+00  1.056583668E-01  0.00000E+00  9.000E+00
     -13     1     3     3     0     0  7.320604286E+00  5.646917722E+00  8.769455022E+00  1.274336816E+01  1.056583668E-01  0.00000E+00  9.000E+00
      21     1     1     2   511   501 -1.799164901E+00  9.751308676E-02 -5.182850056E-01  1.874865993E+00  3.650024150E-08  0.00000E+00  9.000E+00
#pdf  -4  4 0.20252292E-02 0.12954407E-02 0.21056647E+02 0.60291641E+00 0.72313406E+00
#rwgt            1           2  -924.50316994400509         54217137    18397907           0
</event>
<event>
      6  10013 -3.31628E+03  2.28001E+00 -1.00000E+00  3.38262E-01
       4    -1     0     0   501     0  0.000000000E+00  0.000000000E+00  4.889518721E+00  4.889518721E+00  0.000000000E+00  0.00000E+00  9.000E+00
      -4    -1     0     0     0   511  0.000000000E+00  0.000000000E+00 -3.293204138E+01  3.293204138E+01  0.000000000E+00  0.00000E+00  9.000E+00
      23     2     1     2     0     0 -2.082572302E+00  9.280904377E-01 -2.457129052E+01  3.366849956E+01  2.290460840E+01  0.00000E+00  9.000E+00
      13     1     3     3     0     0 -9.495341339E+00  6.090536278E-01 -2.446175663E+01  2.624730757E+01  1.056583668E-01  0.00000E+00  9.000E+00
     -13     1     3     3     0     0  7.412769037E+00  3.190368099E-01 -1.095338894E-01  7.421191996E+00  1.056583668E-01  0.00000E+00  9.000E+00
      21     1     1     2   501   511  2.082572302E+00 -9.280904377E-01 -3.471232141E+00  4.153060538E+00  4.214684851E-08  0.00000E+00  9.000E+00
#pdf   4 -4 0.69634379E-03 0.44579514E-02 0.22904608E+02 0.94352186E+00 0.43207380E+00
#rwgt            1           9  -2264.3905525925106         54217137    18398008           0
</event>
<event>
      6  10013  3.31628E+03  8.11462E+00 -1.00000E+00  2.06801E-01
      -2    -1     0     0     0   511  0.000000000E+00  0.000000000E+00  9.997355639E-01  9.997355639E-01  0.000000000E+00  0.00000E+00  9.000E+00
       2    -1     0     0   501     0  0.000000000E+00  0.000000000E+00 -2.714445382E+03  2.714445382E+03  0.000000000E+00  0.00000E+00  9.000E+00
      23     2     1     2     0     0 -3.768041681E+00 -7.186720132E+00 -2.655748196E+03  2.657179838E+03  8.683525016E+01  0.00000E+00  9.000E+00
      13     1     3     3     0     0  9.947014581E+00  1.389447450E+01 -1.110257067E+02  1.123330683E+02  1.056583668E-01  0.00000E+00  9.000E+00
     -13     1     3     3     0     0 -1.371505626E+01 -2.108119463E+01 -2.544722490E+03  2.544846769E+03  1.056583668E-01  0.00000E+00  9.000E+00
      21     1     1     2   501   511  3.768041681E+00  7.186720132E+00 -5.769744971E+01  5.826527943E+01  9.536743164E-07  0.00000E+00  9.000E+00
#pdf  -2  2 0.10964854E-03 0.40691392E+00 0.86835250E+02 0.32610490E+01 0.20102958E+00
#rwgt            1           4   4780.7910069230820         54217137    18398208           0
</event>
<event>
      6  10013  3.31628E+03  2.36265E+00 -1.00000E+00  3.32183E-01
       1    -1     0     0   501     0  0.000000000E+00  0.000000000E+00  9.457110662E+02  9.457110662E+02  0.000000000E+00  0.00000E+00  9.000E+00
      21    -1     0     0   511   501  0.000000000E+00  0.000000000E+00 -2.399055082E+01  2.399055082E+01  0.000000000E+00  0.00000E+00  9.000E+00
      23     2     1     2     0     0  1.281549230E+00  1.984882117E+00  9.435517350E+02  9.477429223E+02  8.900105674E+01  0.00000E+00  9.000E+00
      13     1     3     3     0     0  4.112038338E+01 -1.140688579E+01  6.209917602E+02  6.224562478E+02  1.056583668E-01  0.00000E+00  9.000E+00
     -13     1     3     3     0     0 -3.983883415E+01  1.339176791E+01  3.225599748E+02  3.252866745E+02  1.056583668E-01  0.00000E+00  9.000E+00
       1     1     1     2   511     0 -1.281549230E+00 -1.984882117E+00 -2.183121958E+01  2.195869472E+01  0.000000000E+00  0.00000E+00  9.000E+00
#pdf   1 -1 0.14543297E+00 0.32228549E-03 0.89001057E+02 0.29926869E+00 0.22281557E+01
#rwgt            1           6   1040.0945693173578         54217137    18398308           0
</event>
<event>
      6  10013  3.31628E+03  1.52890E+01 -1.00000E+00  1.76559E-01
      -3    -1     0     0     0   501  0.000000000E+00  0.000000000E+00  6.783299537E+01  6.783299537E+01  0.000000000E+00  0.00000E+00  9.000E+00
      21    -1     0     0   501   511  0.000000000E+00  0.000000000E+00 -6.362485510E+01  6.362485510E+01  0.000000000E+00  0.00000E+00  9.000E+00
      23     2     1     2     0     0 -1.472382293E+01 -4.118718938E+00  3.806648938E+01  9.430757978E+01  8.491823822E+01  0.00000E+00  9.000E+00
      13     1     3     3     0     0  2.549533362E+01 -1.453848132E+01  4.342849461E+01  5.241588293E+01  1.056583668E-01  0.00000E+00  9.000E+00
     -13     1     3     3     0     0 -4.021915655E+01  1.041976238E+01 -5.362005228E+00  4.189169685E+01  1.056583668E-01  0.00000E+00  9.000E+00
      -3     1     1     2     0   511  1.472382293E+01  4.118718938E+00 -3.385834912E+01  3.715027069E+01  0.000000000E+00  0.00000E+00  9.000E+00
#pdf  -3  3 0.10021488E-01 0.42577782E-02 0.84918238E+02 0.48569848E+00 0.74812656E+00
#rwgt            1           3   417.29742941335445         54217137    18398456           0
</event>
<event>
      6  10013  3.31628E+03  5.81776E+00 -1.00000E+00  2.27493E-01
       2    -1     0     0   511     0  0.000000000E+00  0.000000000E+00  1.126768588E+02  1.126768588E+02  0.000000000E+00  0.00000E+00  9.000E+00
      -2    -1     0     0     0   501  0.000000000E+00  0.000000000E+00 -3.002078916E+00  3.002078916E+00  0.000000000E+00  0.00000E+00  9.000E+00
      23     2     1     2     0     0  4.238685028E+00 -3.984953614E+00  3.636685015E+01  4.214052008E+01  2.047997405E+01  0.00000E+00  9.000E+00
      13     1     3     3     0     0 -4.701079651E+00 -1.411878134E+00  3.284096189E-01  4.920626619E+00  1.056583668E-01  0.00000E+00  9.000E+00
     -13     1     3     3     0     0  8.939764679E+00 -2.573075480E+00  3.603844053E+01  3.721989346E+01  1.056583668E-01  0.00000E+00  9.000E+00
      21     1     1     2   511   501 -4.238685028E+00  3.984953614E+00  7.330792978E+01  7.353841768E+01  1.651812370E-06  0.00000E+00  9.000E+00
#pdf   2 -2 0.58091861E-02 0.42722515E-03 0.20479974E+02 0.73525010E+00 0.14164811E+01
#rwgt            1           7   1020.0727378842267         54217137    18398510           0
</event>
<event>
      6  10013  3.31628E+03  4.66026E+00 -1.00000E+00  2.48661E-01
      -1    -1     0     0     0   501  0.000000000E+00  0.000000000E+00  3.258661833E+00  3.258661833E+00  0.000000000E+00  0.00000E+00  9.000E+00
       1    -1     0     0   511     0  0.000000000E+00  0.000000000E+00 -1.332027273E+03  1.332027273E+03  0.000000000E+00  0.00000E+00  9.000E+00
      23     2     1     2     0     0  3.359062535E+00  3.230285941E+00 -6.427773741E+02  6.492788683E+02  9.153457310E+01  0.00000E+00  9.000E+00
      13     1     3     3     0     0 -9.777507295E+00  9.656298361E-01 -6.321607255E+02  6.322370807E+02  1.056583668E-01  0.00000E+00  9.000E+00
     -13     1     3     3     0     0  1.313656983E+01  2.264656104E+00 -1.061664855E+01  1.704178759E+01  1.056583668E-01  0.00000E+00  9.000E+00
      21     1     1     2   511   501 -3.359062535E+00 -3.230285941E+00 -6.859912370E+02  6.860070665E+02  0.000000000E+00  0.00000E+00  9.000E+00
#pdf  -1  1 0.49946802E-03 0.99260379E-01 0.91534573E+02 0.19028932E+01 0.36222048E+00
#rwgt            1           5   1150.7999165952906         54217137    18398564           0
</event>
<event>
      6  10013  3.31628E+03  6.17261E+00 -1.00000E+00  2.23499E-01
      21    -1     0     0   501   511  0.000000000E+00  0.000000000E+00  1.508256356E+01  1.508256356E+01  0.000000000E+00  0.00000E+00  9.000E+00
      -2    -1     0     0     0   501  0.000000000E+00  0.000000000E+00 -5.294973295E+01  5.294973295E+01  0.000000000E+00  0.00000E+00  9.000E+00
      23     2     1     2     0     0 -6.165583851E+00  2.944647160E-01 -4.527938764E+01  5.838646254E+01  3.634081631E+01  0.00000E+00  9.000E+00
      13     1     3     3     0     0  1.049093819E+01 -6.522939375E+00 -3.615565826E+01  3.820800060E+01  1.056583668E-01  0.00000E+00  9.000E+00
     -13     1     3     3     0     0 -1.665652204E+01  6.817404091E+00 -9.123729383E+00  2.017846195E+01  1.056583668E-01  0.00000E+00  9.000E+00
      -2     1     1     2     0   511  6.165583851E+00 -2.944647160E-01  7.412218245E+00  9.645833972E+00  0.000000000E+00  0.00000E+00  9.000E+00
#pdf   2 -2 0.99399994E-03 0.78616968E-02 0.36340816E+02 0.12935805E+01 0.53949307E+00
#rwgt            1           7   689.83783887005870         54217137    18398667           0
</event>
<event>
      6  10013  3.31628E+03  3.93282E+01 -1.00000E+00  1.45266E-01
      -4    -1     0     0     0   501  0.000000000E+00  0.000000000E+00  3.509498728E+02  3.509498728E+02  0.000000000E+00  0.00000E+00  9.000E+00
      21    -1     0     0   501   511  0.000000000E+00  0.000000000E+00 -9.464559064E+00  9.464559064E+00  0.000000000E+00  0.00000E+00  9.000E+00
      23     2     1     2     0     0 -3.857450406E+01 -7.662445414E+00  1.763343489E+02  1.906453339E+02  6.086982264E+01  0.00000E+00  9.000E+00
      13     1     3     3     0     0  1.199640594E+01 -9.243758995E+00  8.402755854E+01  8.538151201E+01  1.056583668E-01  0.00000E+00  9.000E+00
     -13     1     3     3     0     0 -5.057091000E+01  1.581313582E+00  9.230679036E+01  1.052638219E+02  1.056583668E-01  0.00000E+00  9.000E+00
      -4     1     1     2     0   511  3.857450406E+01  7.662445414E+00  1.651509648E+02  1.697690980E+02  0.000000000E+00  0.00000E+00  9.000E+00
#pdf  -4  4 0.23710730E-01 0.92463949E-03 0.60869823E+02 0.17438749E+00 0.11148828E+01
#rwgt            1           2   615.71953986002529         54217137    18398762           0
</event>
<event>
      6  10013  3.31628E+03  6.48023E+00 -1.00000E+00  2.20326E-01
      21    -1     0     0   511   501  0.000000000E+00  0.000000000E+00  1.909579911E+00  1.909579911E+00  0.000000000E+00  0.00000E+00  9.000E+00
       1    -1     0     0   501     0  0.000000000E+00  0.000000000E+00 -1.499279790E+03  1.499279790E+03  0.000000000E+00  0.00000E+00  9.000E+00
      23     2     1     2     0     0 -5.551093523E+00 -3.343471678E+00 -1.478180968E+03  1.480935470E+03  9.004942614E+01  0.00000E+00  9.000E+00
      13     1     3     3     0     0  1.038227494E+01 -3.220091201E+00 -1.432749176E+03  1.432790415E+03  1.056583668E-01  0.00000E+00  9.000E+00
     -13     1     3     3     0     0 -1.593336847E+01 -1.233804763E-01 -4.543179187E+01  4.814505509E+01  1.056583668E-01  0.00000E+00  9.000E+00
       1     1     1     2   511     0  5.551093523E+00  3.343471678E+00 -1.918924142E+01  2.025389909E+01  0.000000000E+00  0.00000E+00  9.000E+00
#pdf  -1  1 0.21133826E-03 0.22703722E+00 0.90049426E+02 0.26053390E+01 0.20097884E+00
#rwgt            1           5   924.19235076645361         54217137    18398802           0
</event>
<event>
      6  10013  3.31628E+03  2.98936E+00 -1.00000E+00  2.97197E-01
       2    -1     0     0   511     0  0.000000000E+00  0.000000000E+00  6.811199120E+01  6.811199120E+01  0.000000000E+00  0.00000E+00  9.000E+00
      -2    -1     0     0     0   501  0.000000000E+00  0.000000000E+00 -3.820877218E+00  3.820877218E+00  0.000000000E+00  0.00000E+00  9.000E+00
      23     2     1     2     0     0  3.610845766E-01  2.967474832E+00  2.565688922E+01  3.318316375E+01  2.083050895E+01  0.00000E+00  9.000E+00
      13     1     3     3     0     0 -1.965527272E+00 -2.165328077E+00  2.718592789E+01  2.734296586E+01  1.056583668E-01  0.00000E+00  9.000E+00
     -13     1     3     3     0     0  2.326611848E+00  5.132802910E+00 -1.529038672E+00  5.840197887E+00  1.056583668E-01  0.00000E+00  9.000E+00
      21     1     1     2   511   501 -3.610845766E-01 -2.967474832E+00  3.863422477E+01  3.874970467E+01  0.000000000E+00  0.00000E+00  9.000E+00
#pdf   2 -2 0.44802580E-02 0.57307311E-03 0.20830509E+02 0.77687019E+00 0.12946526E+01
#rwgt            1           7   921.58092719861156         54217137    18398897           0
</event>
<event>
      6  10013  3.31628E+03  6.50728E+00 -1.00000E+00  2.20059E-01
      -4    -1     0     0     0   501  0.000000000E+00  0.000000000E+00  2.222118143E+02  2.222118143E+02  0.000000000E+00  0.00000E+00  9.000E+00
      21    -1     0     0   501   511  0.000000000E+00  0.000000000E+00 -5.186990231E+00  5.186990231E+00  0.000000000E+00  0.00000E+00  9.000E+00
      23     2     1     2     0     0 -5.759261544E+00 -3.029120994E+00  2.193403705E+02  2.204918209E+02  2.154298715E+01  0.00000E+00  9.000E+00
      13     1     3     3     0     0  5.389329742E-01 -8.384748357E+00  3.610030508E+01  3.706531592E+01  1.056583668E-01  0.00000E+00  9.000E+00
     -13     1     3     3     0     0 -6.298194518E+00  5.355627363E+00  1.832400654E+02  1.834265050E+02  1.056583668E-01  0.00000E+00  9.000E+00
      -4     1     1     2     0   511  5.759261544E+00  3.029120994E+00 -2.315546418E+00  6.906983621E+00  0.000000000E+00  0.00000E+00  9.000E+00
#pdf  -4  4 0.32387950E-01 0.84789424E-04 0.21542987E+02 0.11563645E+00 0.18888043E+01
#rwgt            1           2   232.84549129989043         54217137    18398977           0
</event>
<event>
      6  10013  3.31628E+03  1.55390E+00 -1.00000E+00  4.23098E-01
      -1    -1     0     0     0   501  0.000000000E+00  0.000000000E+00  1.141934366E+02  1.141934366E+02  0.000000000E+00  0.00000E+00  9.000E+00
       1    -1     0     0   511     0  0.000000000E+00  0.000000000E+00 -1.488666406E+01  1.488666406E+01  0.000000000E+00  0.00000E+00  9.000E+00
      23     2     1     2     0     0 -1.378699454E+00  7.167829641E-01  1.125600214E+02  1.157360685E+02  2.688242105E+01  0.00000E+00  9.000E+00
      13     1     3     3     0     0 -1.602307659E+00 -3.786550613E+00  1.108288048E+02  1.109050967E+02  1.056583668E-01  0.00000E+00  9.000E+00
     -13     1     3     3     0     0  2.236082055E-01  4.503333577E+00  1.731216615E+00  4.830971807E+00  1.056583668E-01  0.00000E+00  9.000E+00
      21     1     1     2   511   501  1.378699454E+00 -7.167829641E-01 -1.325324880E+01  1.334403214E+01  0.000000000E+00  0.00000E+00  9.000E+00
#pdf  -1  1 0.17531973E-01 0.24390419E-03 0.26882421E+02 0.37866144E+00 0.18571297E+01
#rwgt            1           5   218.35704018546716         54217137    18399030           0
</event>
<event>
      6  10013 -3.31628E+03  2.12357E+01 -1.00000E+00  1.64209E-01
      21    -1     0     0   511   501  0.000000000E+00  0.000000000E+00  2.783598393E+02  2.783598393E+02  0.000000000E+00  0.00000E+00  9.000E+00
       5    -1     0     0   501     0  0.000000000E+00  0.000000000E+00 -1.899511125E+02  1.899511125E+02  0.000000000E+00  0.00000E+00  9.000E+00
      23     2     1     2     0     0  1.037760678E+00  2.121030035E+01 -1.776473264E+02  2.014087653E+02  9.249845607E+01  0.00000E+00  9.000E+00
      13     1     3     3     0     0 -1.585644157E+01 -1.712059071E+01 -1.486307321E+02  1.504514774E+02  1.056583668E-01  0.00000E+00  9.000E+00
     -13     1     3     3     0     0  1.689420225E+01  3.833089106E+01 -2.901659423E+01  5.095728784E+01  1.056583668E-01  0.00000E+00  9.000E+00
       5     1     1     2   511     0 -1.037760678E+00 -2.121030035E+01  2.660560531E+02  2.669021865E+02  0.000000000E+00  0.00000E+00  9.000E+00
#pdf  -5  5 0.17814587E-02 0.28418850E-01 0.92498456E+02 0.63833774E+00 0.90831150E-01
#rwgt            1           1  -592.89590205031061         54217137    18399239           0
</event>
<event>
      6  10013  3.31628E+03  2.69961E+01 -1.00000E+00  1.56255E-01
      -2    -1     0     0     0   511  0.000000000E+00  0.000000000E+00  7.364730435E+00  7.364730435E+00  0.000000000E+00  0.00000E+00  9.000E+00
       2    -1     0     0   501     0  0.000000000E+00  0.000000000E+00 -5.969104701E+02  5.969104701E+02  0.000000000E+00  0.00000E+00  9.000E+00
      23     2     1     2     0     0 -1.081139931E+01  2.473669336E+01 -5.348783314E+02  5.433054058E+02  9.141741696E+01  0.00000E+00  9.000E+00
      13     1     3     3     0     0  2.987413599E+01 -1.165511443E+01 -3.199729740E+02  3.215758401E+02  1.056583668E-01  0.00000E+00  9.000E+00
     -13     1     3     3     0     0 -4.068553530E+01  3.639180779E+01 -2.149053574E+02  2.217295656E+02  1.056583668E-01  0.00000E+00  9.000E+00
      21     1     1     2   501   511  1.081139931E+01 -2.473669336E+01 -5.466740821E+01  6.096979477E+01  9.536743164E-07  0.00000E+00  9.000E+00
#pdf  -2  2 0.62169535E-03 0.79541462E-01 0.91417417E+02 0.17444457E+01 0.61629202E+00
#rwgt            1           4   1243.4380744711723         54217137    18399448           0
</event>
<event>
      6  10013  3.31628E+03  4.55614E+00 -1.00000E+00  2.50725E-01
       1    -1     0     0   501     0  0.000000000E+00  0.000000000E+00  2.756405577E+02  2.756405577E+02  0.000000000E+00  0.00000E+00  9.000E+00
      21    -1     0     0   511   501  0.000000000E+00  0.000000000E+00 -8.609878391E+00  8.609878391E+00  0.000000000E+00  0.00000E+00  9.000E+00
      23     2     1     2     0     0  1.955125037E+00  4.115325849E+00  2.616969532E+02  2.772356620E+02  9.139780402E+01  0.00000E+00  9.000E+00
      13     1     3     3     0     0 -1.034220571E+00  3.477360932E+01  3.836581131E+01  5.179015503E+01  1.056583668E-01  0.00000E+00  9.000E+00
     -13     1     3     3     0     0  2.989345608E+00 -3.065828348E+01  2.233311419E+02  2.254455070E+02  1.056583668E-01  0.00000E+00  9.000E+00
       1     1     1     2   511     0 -1.955125037E+00 -4.115325849E+00  5.333726171E+00  7.014774096E+00  0.000000000E+00  0.00000E+00  9.000E+00
#pdf   1 -1 0.41404942E-01 0.11938029E-02 0.91397804E+02 0.46511124E+00 0.13588199E+01
#rwgt            1           6   680.39936291175968         54217137    18399586           0
</event>
<event>
      6  10013  3.31628E+03  1.55620E+00 -1.00000E+00  4.22681E-01
      -1    -1     0     0     0   501  0.000000000E+00  0.000000000E+00  1.353573071E+00  1.353573071E+00  0.000000000E+00  0.00000E+00  9.000E+00
       1    -1     0     0   511     0  0.000000000E+00  0.000000000E+00 -1.637262360E+03  1.637262360E+03  0.000000000E+00  0.00000E+00  9.000E+00
      23     2     1     2     0     0 -5.123844954E-01 -1.469425381E+00 -1.575341324E+03  1.578028482E+03  9.203900741E+01  0.00000E+00  9.000E+00
      13     1     3     3     0     0  2.352962886E+01  3.488098132E+01 -1.064586475E+03  1.065417617E+03  1.056583668E-01  0.00000E+00  9.000E+00
     -13     1     3     3     0     0 -2.404201335E+01 -3.635040670E+01 -5.107548497E+02  5.126108643E+02  1.056583668E-01  0.00000E+00  9.000E+00
      21     1     1     2   511   501  5.123844954E-01  1.469425381E+00 -6.056746295E+01  6.058745181E+01  6.743495762E-07  0.00000E+00  9.000E+00
#pdf  -1  1 0.20667487E-03 0.24253224E+00 0.92039007E+02 0.26387738E+01 0.18428788E+00
#rwgt            1           5   1041.5567216835152         54217137    18399674           0
</event>
<event>
      6  10013  3.31628E+03  8.15765E+00 -1.00000E+00  2.06503E-01
      -1    -1     0     0     0   501  0.000000000E+00  0.000000000E+00  7.923791526E+00  7.923791526E+00  0.000000000E+00  0.00000E+00  9.000E+00
       1    -1     0     0   511     0  0.000000000E+00  0.000000000E+00 -3.308205573E+02  3.308205573E+02  0.000000000E+00  0.00000E+00  9.000E+00
      23     2     1     2     0     0 -7.309063785E+00  3.622815135E+00 -2.110193687E+02  2.265699347E+02  8.208662589E+01  0.00000E+00  9.000E+00
      13     1     3     3     0     0 -3.084613384E+01  3.265424251E+01 -1.073474525E+02  1.163669638E+02  1.056583668E-01  0.00000E+00  9.000E+00
     -13     1     3     3     0     0  2.353707005E+01 -2.903142738E+01 -1.036719161E+02  1.102029709E+02  1.056583668E-01  0.00000E+00  9.000E+00
      21     1     1     2   511   501  7.309063785E+00 -3.622815135E+00 -1.118773971E+02  1.121744141E+02  1.348699152E-06  0.00000E+00  9.000E+00
#pdf  -1  1 0.11903339E-02 0.33495719E-01 0.82086626E+02 0.13374751E+01 0.48822640E+00
#rwgt            1           5   670.29750420617677         54217137    18399875           0
</event>
<event>
      6  10013  3.31628E+03  1.86017E+01 -1.00000E+00  1.68966E-01
      -1    -1     0     0     0   501  0.000000000E+00  0.000000000E+00  9.517374863E+00  9.517374863E+00  0.000000000E+00  0.00000E+00  9.000E+00
       1    -1     0     0   511     0  0.000000000E+00  0.000000000E+00 -3.309863343E+02  3.309863343E+02  0.000000000E+00  0.00000E+00  9.000E+00
      23     2     1     2     0     0  5.912983127E+00  1.763684451E+01 -2.401979597E+02  2.571310695E+02  8.986270296E+01  0.00000E+00  9.000E+00
      13     1     3     3     0     0  2.923860845E+01  2.966259235E+01 -4.974913048E+01  6.488260751E+01  1.056583668E-01  0.00000E+00  9.000E+00
     -13     1     3     3     0     0 -2.332562533E+01 -1.202574784E+01 -1.904488293E+02  1.922484620E+02  1.056583668E-01  0.00000E+00  9.000E+00
      21     1     1     2   511   501 -5.912983127E+00 -1.763684451E+01 -8.127099973E+01  8.337263970E+01  1.348699152E-06  0.00000E+00  9.000E+00
#pdf  -1  1 0.12755062E-02 0.37461889E-01 0.89862703E+02 0.13201725E+01 0.47610067E+00
#rwgt            1           5   604.00498462483984         54217137    18399963           0
</event>
<event>
      6  10013  3.31628E+03  4.37487E+01 -1.00000E+00  1.42438E-01
       2    -1     0     0   501     0  0.000000000E+00  0.000000000E+00  6.768667676E+01  6.768667676E+01  0.000000000E+00  0.00000E+00  9.000E+00
      21    -1     0     0   511   501  0.000000000E+00  0.000000000E+00 -8.364532958E+01  8.364532958E+01  0.000000000E+00  0.00000E+00  9.000E+00
      23     2     1     2     0     0  4.330137939E+01  6.240445755E+00  6.379364806E+00  1.022103242E+02  9.215368396E+01  0.00000E+00  9.000E+00
      13     1     3     3     0     0 -8.878135793E+00 -3.461154226E+01  1.562524493E+00  3.576636407E+01  1.056583668E-01  0.00000E+00  9.000E+00
     -13     1     3     3     0     0  5.217951518E+01  4.085198801E+01  4.816840312E+00  6.644396017E+01  1.056583668E-01  0.00000E+00  9.000E+00
       2     1     1     2   511     0 -4.330137939E+01 -6.240445755E+00 -2.233801762E+01  4.912168209E+01  0.000000000E+00  0.00000E+00  9.000E+00
#pdf   2 -2 0.75458944E-02 0.66592907E-02 0.92153684E+02 0.81348088E+00 0.64005384E+00
#rwgt            1           7   485.83014333441741         54217137    18400052           0
</event>
<event>
      6  10013  3.31628E+03  5.16717E+00 -1.00000E+00  2.35961E-01
      21    -1     0     0   501   511  0.000000000E+00  0.000000000E+00  7.248280906E+01  7.248280906E+01  0.000000000E+00  0.00000E+00  9.000E+00
      -1    -1     0     0     0   501  0.000000000E+00  0.000000000E+00 -4.280071579E+01  4.280071579E+01  0.000000000E+00  0.00000E+00  9.000E+00
      23     2     1     2     0     0 -8.038028544E-01  5.104263191E+00  4.662564702E+00  8.973599246E+01  8.946568745E+01  0.00000E+00  9.000E+00
      13     1     3     3     0     0  2.268484129E+01  3.590520713E+01 -1.653918990E+01  4.557786622E+01  1.056583668E-01  0.00000E+00  9.000E+00
     -13     1     3     3     0     0 -2.348864414E+01 -3.080094394E+01  2.120175460E+01  4.415812624E+01  1.056583668E-01  0.00000E+00  9.000E+00
      -1     1     1     2     0   511  8.038028544E-01 -5.104263191E+00  2.501952857E+01  2.554753239E+01  0.000000000E+00  0.00000E+00  9.000E+00
#pdf   1 -1 0.72493466E-02 0.65332223E-02 0.89465687E+02 0.74633025E+00 0.66020615E+00
#rwgt            1           6   572.12010471805854         54217137    18400087           0
</event>
<event>
      6  10013  3.31628E+03  6.27375E+00 -1.00000E+00  2.22428E-01
      -1    -1     0     0     0   501  0.000000000E+00  0.000000000E+00  6.561634483E+01  6.561634483E+01  0.000000000E+00  0.00000E+00  9.000E+00
      21    -1     0     0   501   511  0.000000000E+00  0.000000000E+00 -3.599048675E+01  3.599048675E+01  0.000000000E+00  0.00000E+00  9.000E+00
      23     2     1     2     0     0  4.147863208E+00  4.706932669E+00  2.472255064E+01  9.364426867E+01  9.010374332E+01  0.00000E+00  9.000E+00
      13     1     3     3     0     0 -1.466599051E+01 -2.200454375E+01 -2.351237462E+01  3.538550759E+01  1.056583668E-01  0.00000E+00  9.000E+00
     -13     1     3     3     0     0  1.881385371E+01  2.671147642E+01  4.823492526E+01  5.825876108E+01  1.056583668E-01  0.00000E+00  9.000E+00
      -1     1     1     2     0   511 -4.147863208E+00 -4.706932669E+00  4.903307436E+00  7.962562913E+00  0.000000000E+00  0.00000E+00  9.000E+00
#pdf  -1  1 0.90831487E-02 0.52888657E-02 0.90103743E+02 0.56620045E+00 0.82855750E+00
#rwgt            1           5   613.45602216528846         54217137    18400172           0
</event>
<event>
      6  10013  3.31628E+03  3.04645E+00 -1.00000E+00  2.94720E-01
      21    -1     0     0   511   501  0.000000000E+00  0.000000000E+00  2.600325933E+00  2.600325933E+00  0.000000000E+00  0.00000E+00  9.000E+00
       2    -1     0     0   501     0  0.000000000E+00  0.000000000E+00 -1.306540636E+02  1.306540636E+02  0.000000000E+00  0.00000E+00  9.000E+00
      23     2     1     2     0     0  2.377428017E+00 -1.904916172E+00 -1.269969378E+02  1.300298437E+02  2.775350762E+01  0.00000E+00  9.000E+00
      13     1     3     3     0     0  1.184915936E+01 -8.951476719E+00 -5.088714624E+01  5.300985124E+01  1.056583668E-01  0.00000E+00  9.000E+00
     -13     1     3     3     0     0 -9.471731344E+00  7.046560547E+00 -7.610979153E+01  7.701999247E+01  1.056583668E-01  0.00000E+00  9.000E+00
       2     1     1     2   511     0 -2.377428017E+00  1.904916172E+00 -1.056799880E+00  3.224545795E+00  0.000000000E+00  0.00000E+00  9.000E+00
#pdf  -2  2 0.23190751E-03 0.19653244E-01 0.27753508E+02 0.18816971E+01 0.64357377E+00
#rwgt            1           4   1300.3011145881781         54217137    18400259           0
</event>
<event>
      6  10013  3.31628E+03  2.60785E+00 -1.00000E+00  3.16480E-01
       4    -1     0     0   511     0  0.000000000E+00  0.000000000E+00  2.224032720E+01  2.224032720E+01  0.000000000E+00  0.00000E+00  9.000E+00
      -4    -1     0     0     0   501  0.000000000E+00  0.000000000E+00 -1.613141725E+01  1.613141725E+01  0.000000000E+00  0.00000E+00  9.000E+00
      23     2     1     2     0     0 -1.175025721E+00 -2.328132562E+00  4.569000563E+00  3.534317919E+01  3.494944438E+01  0.00000E+00  9.000E+00
      13     1     3     3     0     0  1.383686378E+01 -1.058863939E+01  5.241459719E+00  1.819511328E+01  1.056583668E-01  0.00000E+00  9.000E+00
     -13     1     3     3     0     0 -1.501188950E+01  8.260506828E+00 -6.724591557E-01  1.714806591E+01  1.056583668E-01  0.00000E+00  9.000E+00
      21     1     1     2   511   501  1.175025721E+00  2.328132562E+00  1.539909384E+00  3.028565268E+00  2.107342426E-08  0.00000E+00  9.000E+00
#pdf   4 -4 0.30616561E-02 0.23606817E-02 0.34949444E+02 0.57454828E+00 0.64825301E+00
#rwgt            1           9   420.52474768649233         54217137    18400396           0
</event>
<event>
      6  10013  3.31628E+03  2.16897E+00 -1.00000E+00  3.47202E-01
      -1    -1     0     0     0   501  0.000000000E+00  0.000000000E+00  4.112569603E+00  4.112569603E+00  0.000000000E+00  0.00000E+00  9.000E+00
       1    -1     0     0   511     0  0.000000000E+00  0.000000000E+00 -8.718601432E+02  8.718601432E+02  0.000000000E+00  0.00000E+00  9.000E+00
      23     2     1     2     0     0  4.550121832E-01 -2.120702447E+00 -5.764808628E+02  5.846979264E+02  9.765641540E+01  0.00000E+00  9.000E+00
      13     1     3     3     0     0  2.816403027E+01  9.646802396E+00 -5.186225639E+02  5.194763213E+02  1.056583668E-01  0.00000E+00  9.000E+00
     -13     1     3     3     0     0 -2.770901809E+01 -1.176750484E+01 -5.785829892E+01  6.522160509E+01  1.056583668E-01  0.00000E+00  9.000E+00
      21     1     1     2   511   501 -4.550121832E-01  2.120702447E+00 -2.912667107E+02  2.912747864E+02  6.607249480E-06  0.00000E+00  9.000E+00
#pdf  -1  1 0.63192597E-03 0.89299423E-01 0.97656415E+02 0.17605232E+01 0.37603413E+00
#rwgt            1           5   1281.1484499906730         54217137    18400603           0
</event>
<event>
      6  10013  3.31628E+03  2.87513E+00 -1.00000E+00  3.02441E-01
       4    -1     0     0   511     0  0.000000000E+00  0.000000000E+00  6.615116996E+00  6.615116996E+00  0.000000000E+00  0.00000E+00  9.000E+00
      -4    -1     0     0     0   501  0.000000000E+00  0.000000000E+00 -2.400423859E+01  2.400423859E+01  0.000000000E+00  0.00000E+00  9.000E+00
      23     2     1     2     0     0 -9.554995885E-01 -2.711712583E+00 -1.558601419E+01  2.722560237E+01  2.213691987E+01  0.00000E+00  9.000E+00
      13     1     3     3     0     0  5.511643934E-01 -4.106125616E+00 -2.101538271E+01  2.142011960E+01  1.056583668E-01  0.00000E+00  9.000E+00
     -13     1     3     3     0     0 -1.506663982E+00  1.394413033E+00  5.429368512E+00  5.805482770E+00  1.056583668E-01  0.00000E+00  9.000E+00
      21     1     1     2   511   501  9.554995885E-01  2.711712583E+00 -1.803107404E+00  3.393753219E+00  7.300048300E-08  0.00000E+00  9.000E+00
#pdf   4 -4 0.88789546E-03 0.32657719E-02 0.22136920E+02 0.85118814E+00 0.49620032E+00
#rwgt            1           9   396.15919226803805         54217137    18400810           0
</event>
<event>
      6  10013  3.31628E+03  3.70129E+01 -1.00000E+00  1.46930E-01
      21    -1     0     0   511   501  0.000000000E+00  0.000000000E+00  1.499529700E+01  1.499529700E+01  0.000000000E+00  0.00000E+00  9.000E+00
       1    -1     0     0   501     0  0.000000000E+00  0.000000000E+00 -7.136530506E+02  7.136530506E+02  0.000000000E+00  0.00000E+00  9.000E+00
      23     2     1     2     0     0 -3.699961038E+01 -9.924991257E-01 -6.804622947E+02  6.874047912E+02  9.014685909E+01  0.00000E+00  9.000E+00
      13     1     3     3     0     0 -1.867564169E+01  3.250153269E+01 -5.549416380E+02  5.562062225E+02  1.056583668E-01  0.00000E+00  9.000E+00
     -13     1     3     3     0     0 -1.832396869E+01 -3.349403181E+01 -1.255206567E+02  1.311985686E+02  1.056583668E-01  0.00000E+00  9.000E+00
       1     1     1     2   511     0  3.699961038E+01  9.924991257E-01 -1.819545892E+01  4.124355644E+01  0.000000000E+00  0.00000E+00  9.000E+00
#pdf  -1  1 0.49401841E-03 0.97335522E-01 0.90146859E+02 0.19053501E+01 0.36522982E+00
#rwgt            1           5   1220.8719070168140         54217137    18400963           0
</event>
<event>
      6  10013  3.31628E+03  9.15999E+00 -1.00000E+00  2.00207E-01
       2    -1     0     0   501     0  0.000000000E+00  0.000000000E+00  2.325126123E+03  2.325126123E+03  0.000000000E+00  0.00000E+00  9.000E+00
      21    -1     0     0   511   501  0.000000000E+00  0.000000000E+00 -1.279259451E+00  1.279259451E+00  0.000000000E+00  0.00000E+00  9.000E+00
      23     2     1     2     0     0  8.340685020E+00  3.786608890E+00  2.235543447E+03  2.237628140E+03  9.613159363E+01  0.00000E+00  9.000E+00
      13     1     3     3     0     0 -3.786078281E+01 -2.186207861E+01  1.002169258E+03  1.003122436E+03  1.056583668E-01  0.00000E+00  9.000E+00
     -13     1     3     3     0     0  4.620146783E+01  2.564868750E+01  1.233374189E+03  1.234505704E+03  1.056583668E-01  0.00000E+00  9.000E+00
       2     1     1     2   511     0 -8.340685020E+00 -3.786608890E+00  8.830341658E+01  8.877724265E+01  0.000000000E+00  0.00000E+00  9.000E+00
#pdf   2 -2 0.34253861E+00 0.15963792E-03 0.96131594E+02 0.28096963E+00 0.29197085E+01
#rwgt            1           7   1395.0016471847243         54217137    18400988           0
</event>
<event>
      6  10013  3.31628E+03  3.44920E+00 -1.00000E+00  2.79491E-01
       2    -1     0     0   511     0  0.000000000E+00  0.000000000E+00  8.192065133E+02  8.192065133E+02  0.000000000E+00  0.00000E+00  9.000E+00
      -2    -1     0     0     0   501  0.000000000E+00  0.000000000E+00 -2.809117958E+00  2.809117958E+00  0.000000000E+00  0.00000E+00  9.000E+00
      23     2     1     2     0     0  3.196635647E-01  3.434357196E+00  7.269342762E+02  7.324860458E+02  8.994703061E+01  0.00000E+00  9.000E+00
      13     1     3     3     0     0 -3.974941441E+00  3.860708598E+01  5.816369856E+02  5.829304430E+02  1.056583668E-01  0.00000E+00  9.000E+00
     -13     1     3     3     0     0  4.294605005E+00 -3.517272878E+01  1.452972906E+02  1.495556027E+02  1.056583668E-01  0.00000E+00  9.000E+00
      21     1     1     2   511   501 -3.196635647E-01 -3.434357196E+00  8.946311915E+01  8.952958552E+01  1.348699152E-06  0.00000E+00  9.000E+00
#pdf   2 -2 0.11218065E+00 0.42674555E-03 0.89947031E+02 0.59268603E+00 0.20063208E+01
#rwgt            1           7   1288.8778272128616         54217137    18401068           0
</event>
<event>
      6  10013  3.31628E+03  5.44807E+00 -1.00000E+00  2.32100E-01
      -2    -1     0     0     0   511  0.000000000E+00  0.000000000E+00  7.867626074E+00  7.867626074E+00  0.000000000E+00  0.00000E+00  9.000E+00
       2    -1     0     0   501     0  0.000000000E+00  0.000000000E+00 -6.150399003E+01  6.150399003E+01  0.000000000E+00  0.00000E+00  9.000E+00
      23     2     1     2     0     0  3.760489389E+00  3.942101662E+00 -5.547870125E+01  6.362047250E+01  3.065936696E+01  0.00000E+00  9.000E+00
      13     1     3     3     0     0  1.305081183E+01  4.555113814E+00 -9.657285051E+00  1.686259379E+01  1.056583668E-01  0.00000E+00  9.000E+00
     -13     1     3     3     0     0 -9.290322437E+00 -6.130121517E-01 -4.582141620E+01  4.675787871E+01  1.056583668E-01  0.00000E+00  9.000E+00
      21     1     1     2   501   511 -3.760489389E+00 -3.942101662E+00  1.842337301E+00  5.751143598E+00  8.161702119E-08  0.00000E+00  9.000E+00
#pdf  -2  2 0.61663036E-03 0.90201707E-02 0.30659367E+02 0.13950485E+01 0.71258102E+00
#rwgt            1           4   1309.5934428092648         54217137    18401249           0
</event>
<event>
      6  10013  3.31628E+03  5.50790E+00 -1.00000E+00  2.31320E-01
      21    -1     0     0   511   501  0.000000000E+00  0.000000000E+00  2.833021246E+01  2.833021246E+01  0.000000000E+00  0.00000E+00  9.000E+00
       1    -1     0     0   501     0  0.000000000E+00  0.000000000E+00 -2.262659609E+02  2.262659609E+02  0.000000000E+00  0.00000E+00  9.000E+00
      23     2     1     2     0     0 -3.799692813E+00 -3.987398869E+00 -2.159983977E+02  2.357124155E+02  9.420561557E+01  0.00000E+00  9.000E+00
      13     1     3     3     0     0 -1.852008931E-01 -4.722291186E+01 -7.932038670E+01  9.231344764E+01  1.056583668E-01  0.00000E+00  9.000E+00
     -13     1     3     3     0     0 -3.614491920E+00  4.323551300E+01 -1.366780110E+02  1.433989679E+02  1.056583668E-01  0.00000E+00  9.000E+00
       1     1     1     2   511     0  3.799692813E+00  3.987398869E+00  1.806264922E+01  1.888375789E+01  0.000000000E+00  0.00000E+00  9.000E+00
#pdf  -1  1 0.15138776E-02 0.34687748E-01 0.94205616E+02 0.12414635E+01 0.48501821E+00
#rwgt            1           5   685.50898342210883         54217137    18401354           0
</event>
<event>
      6  10013  3.31628E+03  6.55957E+00 -1.00000E+00  2.19547E-01
       4    -1     0     0   501     0  0.000000000E+00  0.000000000E+00  5.186924659E+02  5.186924659E+02  0.000000000E+00  0.00000E+00  9.000E+00
      21    -1     0     0   511   501  0.000000000E+00  0.000000000E+00 -1.158540533E+00  1.158540533E+00  0.000000000E+00  0.00000E+00  9.000E+00
      23     2     1     2     0     0  6.558731680E+00  1.049483508E-01  5.069688620E+02  5.074152298E+02  2.024254114E+01  0.00000E+00  9.000E+00
      13     1     3     3     0     0 -5.365030223E+00 -1.381590905E+00  3.263709471E+02  3.264179814E+02  1.056583668E-01  0.00000E+00  9.000E+00
     -13     1     3     3     0     0  1.192376190E+01  1.486539256E+00  1.805979149E+02  1.809972484E+02  1.056583668E-01  0.00000E+00  9.000E+00
       4     1     1     2   511     0 -6.558731680E+00 -1.049483508E-01  1.056506340E+01  1.243577662E+01  0.000000000E+00  0.00000E+00  9.000E+00
#pdf   4 -4 0.74229484E-01 0.32663816E-04 0.20242541E+02 0.45601042E-01 0.24642922E+01
#rwgt            1           9   146.45084209084513         54217137    18401418           0
</event>
<event>
      6  10013  3.31628E+03  3.09942E+01 -1.00000E+00  1.52028E-01
       2    -1     0     0   501     0  0.000000000E+00  0.000000000E+00  4.744920634E+02  4.744920634E+02  0.000000000E+00  0.00000E+00  9.000E+00
      21    -1     0     0   511   501  0.000000000E+00  0.000000000E+00 -1.328860999E+01  1.328860999E+01  0.000000000E+00  0.00000E+00  9.000E+00
      23     2     1     2     0     0 -3.006041441E+01  7.550755485E+00  4.393655342E+02  4.498658064E+02  9.152337803E+01  0.00000E+00  9.000E+00
      13     1     3     3     0     0 -4.622192152E+01  3.777732469E+01  2.253451169E+02  2.331180499E+02  1.056583668E-01  0.00000E+00  9.000E+00
     -13     1     3     3     0     0  1.616150711E+01 -3.022656920E+01  2.140204172E+02  2.167477565E+02  1.056583668E-01  0.00000E+00  9.000E+00
       2     1     1     2   511     0  3.006041441E+01 -7.550755485E+00  2.183791924E+01  3.791486700E+01  0.000000000E+00  0.00000E+00  9.000E+00
#pdf   2 -2 0.64788181E-01 0.76503550E-03 0.91523378E+02 0.62471813E+00 0.16102476E+01
#rwgt            1           7   976.68463568998732         54217137    18401517           0
</event>
<event>
      6  10013  3.31628E+03  1.17532E+01 -1.00000E+00  1.87928E-01
      21    -1     0     0   501   511  0.000000000E+00  0.000000000E+00  1.065939875E+01  1.065939875E+01  0.000000000E+00  0.00000E+00  9.000E+00
      -1    -1     0     0     0   501  0.000000000E+00  0.000000000E+00 -3.457144220E+02  3.457144220E+02  0.000000000E+00  0.00000E+00  9.000E+00
      23     2     1     2     0     0  1.104145896E+01  4.027857986E+00 -3.315161999E+02  3.440994277E+02  9.145101335E+01  0.00000E+00  9.000E+00
      13     1     3     3     0     0  5.908041650E-01  3.801543718E+01 -6.564055350E+01  7.585654844E+01  1.056583668E-01  0.00000E+00  9.000E+00
     -13     1     3     3     0     0  1.045065479E+01 -3.398757919E+01 -2.658756464E+02  2.682428792E+02  1.056583668E-01  0.00000E+00  9.000E+00
      -1     1     1     2     0   511 -1.104145896E+01 -4.027857986E+00 -3.538823356E+00  1.227439313E+01  0.000000000E+00  0.00000E+00  9.000E+00
#pdf   1 -1 0.96004448E-03 0.51546477E-01 0.91451013E+02 0.15243786E+01 0.20924278E+00
#rwgt            1           6   465.49513173602833         54217137    18401565           0
</event>
<event>
      6  10013  3.31628E+03  5.19281E+00 -1.00000E+00  2.35594E-01
       3    -1     0     0   501     0  0.000000000E+00  0.000000000E+00  1.302773661E+01  1.302773661E+01  0.000000000E+00  0.00000E+00  9.000E+00
      21    -1     0     0   511   501  0.000000000E+00  0.000000000E+00 -2.519629101E+02  2.519629101E+02  0.000000000E+00  0.00000E+00  9.000E+00
      23     2     1     2     0     0 -3.964157217E+00 -3.354210186E+00 -1.499612819E+02  1.758653492E+02  9.172387756E+01  0.00000E+00  9.000E+00
      13     1     3     3     0     0 -1.759289587E+01 -3.573503106E+01 -2.734232294E+01  4.831269209E+01  1.056583668E-01  0.00000E+00  9.000E+00
     -13     1     3     3     0     0  1.362873865E+01  3.238082087E+01 -1.226189590E+02  1.275526571E+02  1.056583668E-01  0.00000E+00  9.000E+00
       3     1     1     2   511     0  3.964157217E+00  3.354210186E+00 -8.897389156E+01  8.912529746E+01  0.000000000E+00  0.00000E+00  9.000E+00
#pdf   3 -3 0.19894350E-02 0.25023518E-01 0.91723878E+02 0.10606164E+01 0.27324502E+00
#rwgt            1           8   402.47889796035940         54217137    18401613           0
</event>
<event>
      6  10013  3.31628E+03  2.61112E+01 -1.00000E+00  1.57312E-01
       4    -1     0     0   501     0  0.000000000E+00  0.000000000E+00  1.049806473E+02  1.049806473E+02  0.000000000E+00  0.00000E+00  9.000E+00
      21    -1     0     0   511   501  0.000000000E+00  0.000000000E+00 -8.562694899E+01  8.562694899E+01  0.000000000E+00  0.00000E+00  9.000E+00
      23     2     1     2     0     0 -2.590945250E+01 -3.239519337E+00  8.059391050E+01  1.240331432E+02  9.059275905E+01  0.00000E+00  9.000E+00
      13     1     3     3     0     0 -2.981689320E+01  2.861897455E+01  8.208364840E+01  9.190119326E+01  1.056583668E-01  0.00000E+00  9.000E+00
     -13     1     3     3     0     0  3.907440693E+00 -3.185849388E+01 -1.489737901E+00  3.213194996E+01  1.056583668E-01  0.00000E+00  9.000E+00
       4     1     1     2   511     0  2.590945250E+01  3.239519337E+00 -6.124021218E+01  6.657445308E+01  0.000000000E+00  0.00000E+00  9.000E+00
#pdf   4 -4 0.15124833E-01 0.32107736E-02 0.90592759E+02 0.26089473E+00 0.67643701E+00
#rwgt            1           9   163.10082971539094         54217137    18401681           0
</event>
<event>
      6  10013  3.31628E+03  4.66163E+00 -1.00000E+00  2.48634E-01
      -2    -1     0     0     0   511  0.000000000E+00  0.000000000E+00  2.452007603E+02  2.452007603E+02  0.000000000E+00  0.00000E+00  9.000E+00
       2    -1     0     0   501     0  0.000000000E+00  0.000000000E+00 -1.055632109E+01  1.055632109E+01  0.000000000E+00  0.00000E+00  9.000E+00
      23     2     1     2     0     0  4.585553256E+00  8.387661810E-01  1.811773834E+02  2.020871934E+02  8.939943303E+01  0.00000E+00  9.000E+00
      13     1     3     3     0     0  3.267951870E+01 -4.582461231E+00  2.042664124E+01  3.880990504E+01  1.056583668E-01  0.00000E+00  9.000E+00
     -13     1     3     3     0     0 -2.809396544E+01  5.421227412E+00  1.607507422E+02  1.632772883E+02  1.056583668E-01  0.00000E+00  9.000E+00
      21     1     1     2   501   511 -4.585553256E+00 -8.387661810E-01  5.346705579E+01  5.366988804E+01  9.536743164E-07  0.00000E+00  9.000E+00
#pdf  -2  2 0.29441892E-01 0.16062647E-02 0.89399433E+02 0.27442311E+00 0.12898475E+01
#rwgt            1           4   400.41619474274165         54217137    18401745           0
</event>
<event>
      6  10013  3.31628E+03  2.52870E+01 -1.00000E+00  1.58343E-01
       1    -1     0     0   501     0  0.000000000E+00  0.000000000E+00  1.006757726E+03  1.006757726E+03  0.000000000E+00  0.00000E+00  9.000E+00
      -1    -1     0     0     0   511  0.000000000E+00  0.000000000E+00 -9.296632961E+00  9.296632961E+00  0.000000000E+00  0.00000E+00  9.000E+00
      23     2     1     2     0     0  1.764671588E+01 -1.811150515E+01  9.816594921E+02  9.862361800E+02  9.147136840E+01  0.00000E+00  9.000E+00
      13     1     3     3     0     0  1.808174153E+01  9.218897351E+00  8.979007865E+02  8.981301526E+02  1.056583668E-01  0.00000E+00  9.000E+00
     -13     1     3     3     0     0 -4.350256473E-01 -2.733040250E+01  8.375870557E+01  8.810602743E+01  1.056583668E-01  0.00000E+00  9.000E+00
      21     1     1     2   501   511 -1.764671588E+01  1.811150515E+01  1.580160093E+01  2.981817889E+01  1.599360450E-06  0.00000E+00  9.000E+00
#pdf   1 -1 0.14590400E+00 0.33932546E-03 0.91471368E+02 0.29813542E+00 0.21981892E+01
#rwgt            1           6   1147.0276696986034         54217137    18401977           0
</event>
<event>
      6  10013  3.31628E+03  1.55759E+01 -1.00000E+00  1.75809E-01
      21    -1     0     0   511   501  0.000000000E+00  0.000000000E+00  1.004151158E+00  1.004151158E+00  0.000000000E+00  0.00000E+00  9.000E+00
       2    -1     0     0   501     0  0.000000000E+00  0.000000000E+00 -2.898023944E+03  2.898023944E+03  0.000000000E+00  0.00000E+00  9.000E+00
      23     2     1     2     0     0  1.257767528E+01  9.187604096E+00 -2.614408709E+03  2.615988107E+03  8.954479408E+01  0.00000E+00  9.000E+00
      13     1     3     3     0     0 -1.149138822E+01  2.154620949E+01 -2.081803984E+02  2.096076826E+02  1.056583668E-01  0.00000E+00  9.000E+00
     -13     1     3     3     0     0  2.406906350E+01 -1.235860539E+01 -2.406228310E+03  2.406380425E+03  1.056583668E-01  0.00000E+00  9.000E+00
       2     1     1     2   511     0 -1.257767528E+01 -9.187604096E+00 -2.826110838E+02  2.830399878E+02  0.000000000E+00  0.00000E+00  9.000E+00
#pdf  -2  2 0.11969486E-03 0.39638615E+00 0.89544794E+02 0.31844582E+01 0.21278955E+00
#rwgt            1           4   4269.1683991941654         54217137    18402014           0
</event>
<event>
      6  10013  3.31628E+03  7.15477E+01 -1.00000E+00  1.30716E-01
      21    -1     0     0   511   501  0.000000000E+00  0.000000000E+00  6.270604518E+01  6.270604518E+01  0.000000000E+00  0.00000E+00  9.000E+00
       3    -1     0     0   501     0  0.000000000E+00  0.000000000E+00 -1.743873014E+02  1.743873014E+02  0.000000000E+00  0.00000E+00  9.000E+00
      23     2     1     2     0     0 -4.069066917E-01 -7.154651853E+01  2.597045081E+01  8.195772098E+01  3.038969934E+01  0.00000E+00  9.000E+00
      13     1     3     3     0     0 -1.382341795E+01 -3.967398438E+01  7.249921086E+00  4.263431059E+01  1.056583668E-01  0.00000E+00  9.000E+00
     -13     1     3     3     0     0  1.341651125E+01 -3.187253415E+01  1.872052973E+01  3.932341038E+01  1.056583668E-01  0.00000E+00  9.000E+00
       3     1     1     2   511     0  4.069066917E-01  7.154651853E+01 -1.376517071E+02  1.551356256E+02  0.000000000E+00  0.00000E+00  9.000E+00
#pdf  -3  3 0.32456809E-02 0.16836828E-02 0.30389699E+02 0.72725897E+00 0.93834755E+00
#rwgt            1           3   129.61975576185628         54217137    18402126           0
</event>
<event>
      6  10013  3.31628E+03  9.69558E+00 -1.00000E+00  1.97263E-01
       2    -1     0     0   501     0  0.000000000E+00  0.000000000E+00  7.233227024E+02  7.233227024E+02  0.000000000E+00  0.00000E+00  9.000E+00
      -2    -1     0     0     0   511  0.000000000E+00  0.000000000E+00 -4.672063427E-01  4.672063427E-01  0.000000000E+00  0.00000E+00  9.000E+00
      23     2     1     2     0     0 -4.676892481E+00  8.492993818E+00  5.385787280E+02  5.392582542E+02  2.526686064E+01  0.00000E+00  9.000E+00
      13     1     3     3     0     0 -4.326118723E+00 -8.229884717E+00  1.270865505E+02  1.274262484E+02  1.056583668E-01  0.00000E+00  9.000E+00
     -13     1     3     3     0     0 -3.507737580E-01  1.672287853E+01  4.114921775E+02  4.118320058E+02  1.056583668E-01  0.00000E+00  9.000E+00
      21     1     1     2   501   511  4.676892481E+00 -8.492993818E+00  1.842767681E+02  1.845316546E+02  4.672030912E-06  0.00000E+00  9.000E+00
#pdf   2 -2 0.77407200E-01 0.48801650E-04 0.25266861E+02 0.62796782E+00 0.29735216E+01
#rwgt            1           7   2195.0942162726560         54217137    18402187           0
</event>
<event>
      6  10013  3.31628E+03  4.21836E+01 -1.00000E+00  1.43392E-01
      -2    -1     0     0     0   501  0.000000000E+00  0.000000000E+00  3.893819980E+01  3.893819980E+01  0.000000000E+00  0.00000E+00  9.000E+00
       2    -1     0     0   511     0  0.000000000E+00  0.000000000E+00 -2.217065378E+02  2.217065378E+02  0.000000000E+00  0.00000E+00  9.000E+00
      23     2     1     2     0     0 -4.117887930E+01 -9.151752894E+00 -3.302074587E+01  1.050690453E+02  9.038628183E+01  0.00000E+00  9.000E+00
      13     1     3     3     0     0 -3.182572751E+01 -4.384222452E+01  2.912956445E+00  5.425416170E+01  1.056583668E-01  0.00000E+00  9.000E+00
     -13     1     3     3     0     0 -9.353151786E+00  3.469047163E+01 -3.593370232E+01  5.081488361E+01  1.056583668E-01  0.00000E+00  9.000E+00
      21     1     1     2   511   501  4.117887930E+01  9.151752894E+00 -1.497475921E+02  1.555756923E+02  1.907348633E-06  0.00000E+00  9.000E+00
#pdf  -2  2 0.50221566E-02 0.96256062E-02 0.90386282E+02 0.72988571E+00 0.76855900E+00
#rwgt            1           4   483.50112729685628         54217137    18402231           0
</event>
<event>
      6  10013  3.31628E+03  6.97838E+01 -1.00000E+00  1.31263E-01
      -3    -1     0     0     0   501  0.000000000E+00  0.000000000E+00  1.536807912E+02  1.536807912E+02  0.000000000E+00  0.00000E+00  9.000E+00
      21    -1     0     0   501   511  0.000000000E+00  0.000000000E+00 -6.187553665E+01  6.187553665E+01  0.000000000E+00  0.00000E+00  9.000E+00
      23     2     1     2     0     0 -5.709638196E+01  4.012200446E+01  1.991756077E+01  1.153684414E+02  8.968498185E+01  0.00000E+00  9.000E+00
      13     1     3     3     0     0 -7.936271208E+01  3.988954217E+01  2.550020931E+01  9.241151163E+01  1.056583668E-01  0.00000E+00  9.000E+00
     -13     1     3     3     0     0  2.226633012E+01  2.324622912E-01 -5.582648544E+00  2.295692977E+01  1.056583668E-01  0.00000E+00  9.000E+00
      -3     1     1     2     0   511  5.709638196E+01 -4.012200446E+01  7.188769376E+01  1.001878864E+02  0.000000000E+00  0.00000E+00  9.000E+00
#pdf  -3  3 0.82132082E-02 0.57948195E-02 0.89684982E+02 0.54325292E+00 0.64913160E+00
#rwgt            1           3   411.71476534060355         54217137    18402277           0
</event>
<event>
      6  10013  3.31628E+03  2.39266E+01 -1.00000E+00  1.60153E-01
      -5    -1     0     0     0   501  0.000000000E+00  0.000000000E+00  9.481594591E+01  9.481594591E+01  0.000000000E+00  0.00000E+00  9.000E+00
      21    -1     0     0   501   511  0.000000000E+00  0.000000000E+00 -4.233197330E+01  4.233197330E+01  0.000000000E+00  0.00000E+00  9.000E+00
      23     2     1     2     0     0  2.227173861E+01  8.743663310E+00  1.724404782E+01  9.455291611E+01  8.983548726E+01  0.00000E+00  9.000E+00
      13     1     3     3     0     0  5.365704385E+01  1.348889320E+01  2.669985742E+01  6.143225654E+01  1.056583668E-01  0.00000E+00  9.000E+00
     -13     1     3     3     0     0 -3.138530523E+01 -4.745229893E+00 -9.455809602E+00  3.312065957E+01  1.056583668E-01  0.00000E+00  9.000E+00
      -5     1     1     2     0   511 -2.227173861E+01 -8.743663310E+00  3.523992480E+01  4.259500309E+01  0.000000000E+00  0.00000E+00  9.000E+00
#pdf  -5  5 0.83100746E-02 0.57465108E-02 0.89835487E+02 0.25103984E+00 0.32138078E+00
#rwgt            1           1   97.288239471105257         54217137    18402317           0
</event>
<event>
      6  10013  3.31628E+03  2.59225E+00 -1.00000E+00  3.17389E-01
      -2    -1     0     0     0   511  0.000000000E+00  0.000000000E+00  1.581651589E-01  1.581651589E-01  0.000000000E+00  0.00000E+00  9.000E+00
       2    -1     0     0   501     0  0.000000000E+00  0.000000000E+00 -2.905181079E+03  2.905181079E+03  0.000000000E+00  0.00000E+00  9.000E+00
      23     2     1     2     0     0 -2.312553562E+00 -1.171253953E+00 -2.885560524E+03  2.885704979E+03  2.875708451E+01  0.00000E+00  9.000E+00
      13     1     3     3     0     0 -4.941681597E-01 -1.357917889E+01 -8.766261063E+02  8.767314182E+02  1.056583668E-01  0.00000E+00  9.000E+00
     -13     1     3     3     0     0 -1.818385403E+00  1.240792494E+01 -2.008934417E+03  2.008973561E+03  1.056583668E-01  0.00000E+00  9.000E+00
      21     1     1     2   501   511  2.312553562E+00  1.171253953E+00 -1.946238967E+01  1.963426473E+01  6.307962682E-07  0.00000E+00  9.000E+00
#pdf  -2  2 0.11067070E-04 0.44215073E+00 0.28757085E+02 0.48571884E+01 0.19475544E+00
#rwgt            1           4   5516.9602834384559         54217137    18402490           0
</event>
<event>
      6  10013  3.31628E+03  3.88626E+01 -1.00000E+00  1.45590E-01
       1    -1     0     0   501     0  0.000000000E+00  0.000000000E+00  1.579531160E+02  1.579531160E+02  0.000000000E+00  0.00000E+00  9.000E+00
      -1    -1     0     0     0   511  0.000000000E+00  0.000000000E+00 -3.012794566E+01  3.012794566E+01  0.000000000E+00  0.00000E+00  9.000E+00
      23     2     1     2     0     0  3.543971591E+01 -1.594776172E+01  9.306811696E+01  1.359431932E+02  9.115137306E+01  0.00000E+00  9.000E+00
      13     1     3     3     0     0  4.696527227E+01  2.577220707E+01  3.697817072E+01  6.509485179E+01  1.056583668E-01  0.00000E+00  9.000E+00
     -13     1     3     3     0     0 -1.152555636E+01 -4.171996879E+01  5.608994624E+01  7.084834139E+01  1.056583668E-01  0.00000E+00  9.000E+00
      21     1     1     2   501   511 -3.543971591E+01  1.594776172E+01  3.475705333E+01  5.213786843E+01  0.000000000E+00  0.00000E+00  9.000E+00
#pdf   1 -1 0.16204882E-01 0.30338482E-02 0.91151373E+02 0.58727775E+00 0.92724049E+00
#rwgt            1           6   726.42452757317199         54217137    18402675           0
</event>
<event>
      6  10013  3.31628E+03  1.14974E+01 -1.00000E+00  1.88949E-01
       4    -1     0     0   501     0  0.000000000E+00  0.000000000E+00  1.768622074E+01  1.768622074E+01  0.000000000E+00  0.00000E+00  9.000E+00
      -4    -1     0     0     0   511  0.000000000E+00  0.000000000E+00 -1.517393943E+02  1.517393943E+02  0.000000000E+00  0.00000E+00  9.000E+00
      23     2     1     2     0     0 -1.145562828E+01 -9.787098184E-01 -1.157973809E+02  1.478510175E+02  9.120691131E+01  0.00000E+00  9.000E+00
      13     1     3     3     0     0 -3.035045097E+01  3.356764988E+01 -3.249907737E+01  5.571479324E+01  1.056583668E-01  0.00000E+00  9.000E+00
     -13     1     3     3     0     0  1.889482269E+01 -3.454635970E+01 -8.329830352E+01  9.213622429E+01  1.056583668E-01  0.00000E+00  9.000E+00
      21     1     1     2   501   511  1.145562828E+01  9.787098184E-01 -1.825579268E+01  2.157459753E+01  3.371747881E-07  0.00000E+00  9.000E+00
#pdf   4 -4 0.24463043E-02 0.20121405E-01 0.91206911E+02 0.77691887E+00 0.20849472E+00
#rwgt            1           9   154.48818568704525         54217137    18402706           0
</event>
<event>
      6  10013  3.31628E+03  7.52788E+00 -1.00000E+00  2.11117E-01
       2    -1     0     0   511     0  0.000000000E+00  0.000000000E+00  2.885568333E+03  2.885568333E+03  0.000000000E+00  0.00000E+00  9.000E+00
      -2    -1     0     0     0   501  0.000000000E+00  0.000000000E+00 -1.176914652E-01  1.176914652E-01  0.000000000E+00  0.00000E+00  9.000E+00
      23     2     1     2     0     0  6.345940017E+00  4.049446324E+00  1.669896060E+03  1.670108133E+03  2.552756366E+01  0.00000E+00  9.000E+00
      13     1     3     3     0     0  9.604215210E+00  9.134785775E+00  4.454388633E+02  4.456360369E+02  1.056583668E-01  0.00000E+00  9.000E+00
     -13     1     3     3     0     0 -3.258275192E+00 -5.085339451E+00  1.224457197E+03  1.224472096E+03  1.056583668E-01  0.00000E+00  9.000E+00
      21     1     1     2   511   501 -6.345940017E+00 -4.049446324E+00  1.215554582E+03  1.215577891E+03  2.157918644E-05  0.00000E+00  9.000E+00
#pdf   2 -2 0.24643171E+00 0.15647157E-04 0.25527564E+02 0.47720365E+00 0.41896024E+01
#rwgt            1           7   3993.9983134343197         54217137    18402879           0
</event>
<event>
      6  10013  3.31628E+03  2.27645E+00 -1.00000E+00  3.38535E-01
      -2    -1     0     0     0   501  0.000000000E+00  0.000000000E+00  1.637906953E-01  1.637906953E-01  0.000000000E+00  0.00000E+00  9.000E+00
      21    -1     0     0   501   511  0.000000000E+00  0.000000000E+00 -1.257436418E+03  1.257436418E+03  0.000000000E+00  0.00000E+00  9.000E+00
      23     2     1     2     0     0  1.161790760E+00  1.957666297E+00 -6.358998082E+02  6.362232196E+02  2.015531977E+01  0.00000E+00  9.000E+00
      13     1     3     3     0     0 -8.199271886E+00  5.869982591E+00 -3.399115859E+02  3.400611447E+02  1.056583668E-01  0.00000E+00  9.000E+00
     -13     1     3     3     0     0  9.361062646E+00 -3.912316294E+00 -2.959882223E+02  2.961620749E+02  1.056583668E-01  0.00000E+00  9.000E+00
      -2     1     1     2     0   511 -1.161790760E+00 -1.957666297E+00 -6.213728194E+02  6.213769893E+02  0.000000000E+00  0.00000E+00  9.000E+00
#pdf  -2  2 0.24720626E-04 0.97237372E-01 0.20155320E+02 0.33419403E+01 0.62724408E+00
#rwgt            1           4   2227.3126097345239         54217137    18402938           0
</event>
<event>
      6  10013  3.31628E+03  8.51748E+00 -1.00000E+00  2.04110E-01
       4    -1     0     0   501     0  0.000000000E+00  0.000000000E+00  5.848502166E+01  5.848502166E+01  0.000000000E+00  0.00000E+00  9.000E+00
      21    -1     0     0   511   501  0.000000000E+00  0.000000000E+00 -1.552953832E+01  1.552953832E+01  0.000000000E+00  0.00000E+00  9.000E+00
      23     2     1     2     0     0 -5.836935118E+00 -6.203032687E+00  4.325002230E+01  6.549199116E+01  4.843644343E+01  0.00000E+00  9.000E+00
      13     1     3     3     0     0 -3.391110666E+00 -5.226969189E+00 -1.021302435E+01  1.196402392E+01  1.056583668E-01  0.00000E+00  9.000E+00
     -13     1     3     3     0     0 -2.445824452E+00 -9.760634985E-01  5.346304664E+01  5.352796724E+01  1.056583668E-01  0.00000E+00  9.000E+00
       4     1     1     2   511     0  5.836935118E+00  6.203032687E+00 -2.945389596E-01  8.522568820E+00  0.000000000E+00  0.00000E+00  9.000E+00
#pdf   4 -4 0.82383638E-02 0.16850656E-02 0.48436443E+02 0.36134059E+00 0.81505965E+00
#rwgt            1           9   528.80910374844518         54217137    18403077           0
</event>
<event>
      6  10013  3.31628E+03  7.12320E+00 -1.00000E+00  2.14418E-01
      21    -1     0     0   511   501  0.000000000E+00  0.000000000E+00  6.804403070E+00  6.804403070E+00  0.000000000E+00  0.00000E+00  9.000E+00
       2    -1     0     0   501     0  0.000000000E+00  0.000000000E+00 -1.228270585E+02  1.228270585E+02  0.000000000E+00  0.00000E+00  9.000E+00
      23     2     1     2     0     0  6.973297833E+00 -1.453637455E+00 -1.193763173E+02  1.217582797E+02  2.288304200E+01  0.00000E+00  9.000E+00
      13     1     3     3     0     0  1.163505687E+01  7.354460306E+00 -6.066072644E+01  6.220287397E+01  1.056583668E-01  0.00000E+00  9.000E+00
     -13     1     3     3     0     0 -4.661759038E+00 -8.808097761E+00 -5.871559082E+01  5.955540574E+01  1.056583668E-01  0.00000E+00  9.000E+00
       2     1     1     2   511     0 -6.973297833E+00  1.453637455E+00  3.353661848E+00  7.873181841E+00  0.000000000E+00  0.00000E+00  9.000E+00
#pdf  -2  2 0.17494764E-03 0.17710577E-01 0.22883042E+02 0.19422825E+01 0.64038296E+00
#rwgt            1           4   1229.6770349497122         54217137    18403241           0
</event>
<event>
      6  10013  3.31628E+03  1.82177E+01 -1.00000E+00  1.69741E-01
       2    -1     0     0   511     0  0.000000000E+00  0.000000000E+00  5.032238429E+02  5.032238429E+02  0.000000000E+00  0.00000E+00  9.000E+00
      -2    -1     0     0     0   501  0.000000000E+00  0.000000000E+00 -3.857101098E+00  3.857101098E+00  0.000000000E+00  0.00000E+00  9.000E+00
      23     2     1     2     0     0 -1.736066673E+01 -5.522016536E+00  2.454687494E+02  2.525302104E+02  5.643327768E+01  0.00000E+00  9.000E+00
      13     1     3     3     0     0 -1.995659982E+01 -4.855921646E+00  2.641747439E+01  3.346251587E+01  1.056583668E-01  0.00000E+00  9.000E+00
     -13     1     3     3     0     0  2.595933092E+00 -6.660948899E-01  2.190512750E+02  2.190676945E+02  1.056583668E-01  0.00000E+00  9.000E+00
      21     1     1     2   511   501  1.736066673E+01  5.522016536E+00  2.538979924E+02  2.545507336E+02  4.672030912E-06  0.00000E+00  9.000E+00
#pdf   2 -2 0.36455147E-01 0.51692197E-03 0.56433278E+02 0.63882203E+00 0.17022465E+01
#rwgt            1           7   1597.1976974011200         54217137    18403286           0
</event>
<event>
      6  10013  3.31628E+03  6.69691E+00 -1.00000E+00  2.18234E-01
      -4    -1     0     0     0   501  0.000000000E+00  0.000000000E+00  7.775807162E-01  7.775807162E-01  0.000000000E+00  0.00000E+00  9.000E+00
      21    -1     0     0   501   511  0.000000000E+00  0.000000000E+00 -5.333103035E+02  5.333103035E+02  0.000000000E+00  0.00000E+00  9.000E+00
      23     2     1     2     0     0  4.966759208E-01 -6.678462892E+00 -1.567558509E+02  1.582513426E+02  2.064563143E+01  0.00000E+00  9.000E+00
      13     1     3     3     0     0  7.270408338E-01 -6.579596134E+00 -1.390924538E+01  1.540447807E+01  1.056583668E-01  0.00000E+00  9.000E+00
     -13     1     3     3     0     0 -2.303649129E-01 -9.886675805E-02 -1.428466055E+02  1.428468646E+02  1.056583668E-01  0.00000E+00  9.000E+00
      -4     1     1     2     0   511 -4.966759208E-01  6.678462892E+00 -3.757768719E+02  3.758365416E+02  0.000000000E+00  0.00000E+00  9.000E+00
#pdf  -4  4 0.10942501E-03 0.23049051E-01 0.20645631E+02 0.17086800E+01 0.15359578E+00
#rwgt            1           2   147.26392186676009         54217137    18403341           0
</event>
<event>
      6  10013  3.31628E+03  4.60890E+00 -1.00000E+00  2.49669E-01
      -2    -1     0     0     0   511  0.000000000E+00  0.000000000E+00  1.508130660E+00  1.508130660E+00  0.000000000E+00  0.00000E+00  9.000E+00
       2    -1     0     0   501     0  0.000000000E+00  0.000000000E+00 -2.779073794E+02  2.779073794E+02  0.000000000E+00  0.00000E+00  9.000E+00
      23     2     1     2     0     0  2.553913667E+00 -3.836603601E+00 -2.500844518E+02  2.527001486E+02  3.597068316E+01  0.00000E+00  9.000E+00
      13     1     3     3     0     0  7.813344734E+00 -3.308615015E+00 -1.280293493E+01  1.535973945E+01  1.056583668E-01  0.00000E+00  9.000E+00
     -13     1     3     3     0     0 -5.259431067E+00 -5.279885862E-01 -2.372815169E+02  2.373404092E+02  1.056583668E-01  0.00000E+00  9.000E+00
      21     1     1     2   501   511 -2.553913667E+00  3.836603601E+00 -2.631479695E+01  2.671536151E+01  3.371747881E-07  0.00000E+00  9.000E+00
#pdf  -2  2 0.19957588E-03 0.38362122E-01 0.35970683E+02 0.21252611E+01 0.63196970E+00
#rwgt            1           4   1616.1809488994088         54217137    18403421           0
</event>
<event>
      6  10013  3.31628E+03  3.86379E+00 -1.00000E+00  2.66955E-01
      -1    -1     0     0     0   501  0.000000000E+00  0.000000000E+00  9.712304704E+01  9.712304704E+01  0.000000000E+00  0.00000E+00  9.000E+00
      21    -1     0     0   501   511  0.000000000E+00  0.000000000E+00 -1.019976347E+02  1.019976347E+02  0.000000000E+00  0.00000E+00  9.000E+00
      23     2     1     2     0     0 -3.282196659E+00  2.038643080E+00  7.566443616E+01  1.184890301E+02  9.110221999E+01  0.00000E+00  9.000E+00
      13     1     3     3     0     0 -2.782291850E+01 -8.103490117E+00  8.541827591E+01  9.020019052E+01  1.056583668E-01  0.00000E+00  9.000E+00
     -13     1     3     3     0     0  2.454072184E+01  1.014213320E+01 -9.753839754E+00  2.828883963E+01  1.056583668E-01  0.00000E+00  9.000E+00
      -1     1     1     2     0   511  3.282196659E+00 -2.038643080E+00 -8.053902383E+01  8.063165160E+01  0.000000000E+00  0.00000E+00  9.000E+00
#pdf  -1  1 0.14921468E-01 0.32912408E-02 0.91102220E+02 0.44275967E+00 0.97689322E+00
#rwgt            1           5   440.46290468218291         54217137    18403570           0
</event>
<event>
      6  10013  3.31628E+03  2.09581E+01 -1.00000E+00  1.64669E-01
      21    -1     0     0   501   511  0.000000000E+00  0.000000000E+00  2.661358434E+01  2.661358434E+01  0.000000000E+00  0.00000E+00  9.000E+00
      -2    -1     0     0     0   501  0.000000000E+00  0.000000000E+00 -1.460471778E+02  1.460471778E+02  0.000000000E+00  0.00000E+00  9.000E+00
      23     2     1     2     0     0  1.468083934E+01  1.495703523E+01 -1.196177772E+02  1.517019007E+02  9.091652286E+01  0.00000E+00  9.000E+00
      13     1     3     3     0     0  4.466171568E+00 -6.097518834E+00  1.407505183E+01  1.597637856E+01  1.056583668E-01  0.00000E+00  9.000E+00
     -13     1     3     3     0     0  1.021466778E+01  2.105455407E+01 -1.336928290E+02  1.357255222E+02  1.056583668E-01  0.00000E+00  9.000E+00
      -2     1     1     2     0   511 -1.468083934E+01 -1.495703523E+01  1.841837090E-01  2.095886138E+01  0.000000000E+00  0.00000E+00  9.000E+00
#pdf   2 -2 0.24049381E-02 0.20337381E-01 0.90916523E+02 0.11303730E+01 0.34992880E+00
#rwgt            1           7   442.01146748803751         54217137    18403677           0
</event>
<event>
      6  10013  3.31628E+03  1.14553E+01 -1.00000E+00  1.89120E-01
      21    -1     0     0   501   511  0.000000000E+00  0.000000000E+00  3.615791604E+01  3.615791604E+01  0.000000000E+00  0.00000E+00  9.000E+00
      -2    -1     0     0     0   501  0.000000000E+00  0.000000000E+00 -1.141471626E+01  1.141471626E+01  0.000000000E+00  0.00000E+00  9.000E+00
      23     2     1     2     0     0 -3.712397765E+00  1.083711417E+01  9.192946305E+00  2.825850990E+01  2.414142041E+01  0.00000E+00  9.000E+00
      13     1     3     3     0     0 -3.224578350E+00 -6.367057760E+00  8.408031430E+00  1.102921059E+01  1.056583668E-01  0.00000E+00  9.000E+00
     -13     1     3     3     0     0 -4.878194145E-01  1.720417193E+01  7.849148740E-01  1.722929931E+01  1.056583668E-01  0.00000E+00  9.000E+00
      -2     1     1     2     0   511  3.712397765E+00 -1.083711417E+01  1.555025347E+01  1.931412239E+01  0.000000000E+00  0.00000E+00  9.000E+00
#pdf   2 -2 0.26027293E-02 0.13249819E-02 0.24141420E+02 0.90585933E+00 0.10129517E+01
#rwgt            1           7   493.88121548736524         54217137    18403722           0
</event>
<event>
      6  10013  3.31628E+03  3.08000E+01 -1.00000E+00  1.52216E-01
      -5    -1     0     0     0   501  0.000000000E+00  0.000000000E+00  4.854856936E+02  4.854856936E+02  0.000000000E+00  0.00000E+00  9.000E+00
      21    -1     0     0   501   511  0.000000000E+00  0.000000000E+00 -9.097753825E+00  9.097753825E+00  0.000000000E+00  0.00000E+00  9.000E+00
      23     2     1     2     0     0  3.079976589E+01  1.131185600E-01  4.112089065E+02  4.224936093E+02  9.197525095E+01  0.00000E+00  9.000E+00
      13     1     3     3     0     0  1.280851422E+01 -4.533324226E+01  1.715042173E+02  1.778563145E+02  1.056583668E-01  0.00000E+00  9.000E+00
     -13     1     3     3     0     0  1.799125168E+01  4.544636082E+01  2.397046892E+02  2.446372949E+02  1.056583668E-01  0.00000E+00  9.000E+00
      -5     1     1     2     0   511 -3.079976589E+01 -1.131185600E-01  6.517903332E+01  7.208983812E+01  0.000000000E+00  0.00000E+00  9.000E+00
#pdf  -5  5 0.60811837E-01 0.82312755E-03 0.91975251E+02 0.37471188E-01 0.93906978E+00
#rwgt            1           1   60.414350221357651         54217137    18403837           0
</event>
<event>
      6  10013  3.31628E+03  1.75811E+01 -1.00000E+00  1.71081E-01
       4    -1     0     0   501     0  0.000000000E+00  0.000000000E+00  1.838963753E+02  1.838963753E+02  0.000000000E+00  0.00000E+00  9.000E+00
      21    -1     0     0   511   501  0.000000000E+00  0.000000000E+00 -4.007535354E+00  4.007535354E+00  0.000000000E+00  0.00000E+00  9.000E+00
      23     2     1     2     0     0 -1.369282808E+01  1.102728458E+01  5.704780194E+01  6.381114227E+01  2.254585607E+01  0.00000E+00  9.000E+00
      13     1     3     3     0     0  2.823075781E+00  1.093162963E+01  1.616177200E+01  1.971507852E+01  1.056583668E-01  0.00000E+00  9.000E+00
     -13     1     3     3     0     0 -1.651590386E+01  9.565494861E-02  4.088602994E+01  4.409606375E+01  1.056583668E-01  0.00000E+00  9.000E+00
       4     1     1     2   511     0  1.369282808E+01 -1.102728458E+01  1.228410380E+02  1.240927684E+02  0.000000000E+00  0.00000E+00  9.000E+00
#pdf   4 -4 0.73313196E-02 0.41026512E-03 0.22545856E+02 0.33249841E+00 0.11364811E+01
#rwgt            1           9   517.47662791170387         54217137    18404073           0
</event>
<event>
      6  10013  3.31628E+03  6.37888E+00 -1.00000E+00  2.21344E-01
      -2    -1     0     0     0   501  0.000000000E+00  0.000000000E+00  3.572675354E+02  3.572675354E+02  0.000000000E+00  0.00000E+00  9.000E+00
      21    -1     0     0   501   511  0.000000000E+00  0.000000000E+00 -1.507603913E+00  1.507603913E+00  0.000000000E+00  0.00000E+00  9.000E+00
      23     2     1     2     0     0  6.362030444E+00 -4.633847182E-01  3.442543044E+02  3.456195469E+02  3.001924305E+01  0.00000E+00  9.000E+00
      13     1     3     3     0     0  1.209331336E+01  1.022847797E+01  1.204906956E+02  1.215273175E+02  1.056583668E-01  0.00000E+00  9.000E+00
     -13     1     3     3     0     0 -5.731282919E+00 -1.069186269E+01  2.237636088E+02  2.240922295E+02  1.056583668E-01  0.00000E+00  9.000E+00
      -2     1     1     2     0   511 -6.362030444E+00  4.633847182E-01  1.150562709E+01  1.315559240E+01  0.000000000E+00  0.00000E+00  9.000E+00
#pdf  -2  2 0.51908243E-01 0.10272507E-03 0.30019243E+02 0.17615663E+00 0.25180778E+01
#rwgt            1           4   676.20414978976237         54217137    18404126           0
</event>
<event>
      6  10013  3.31628E+03  1.85908E+01 -1.00000E+00  1.68988E-01
      -2    -1     0     0     0   501  0.000000000E+00  0.000000000E+00  3.815442720E+00  3.815442720E+00  0.000000000E+00  0.00000E+00  9.000E+00
       2    -1     0     0   511     0  0.000000000E+00  0.000000000E+00 -8.185508731E+02  8.185508731E+02  0.000000000E+00  0.00000E+00  9.000E+00
      23     2     1     2     0     0 -1.222438025E+01  1.400646017E+01 -6.398130257E+02  6.464587718E+02  9.056831305E+01  0.00000E+00  9.000E+00
      13     1     3     3     0     0  2.409636344E+01 -1.520207443E+01 -4.538672872E+02  4.547606660E+02  1.056583668E-01  0.00000E+00  9.000E+00
     -13     1     3     3     0     0 -3.632074370E+01  2.920853460E+01 -1.859457385E+02  1.916981057E+02  1.056583668E-01  0.00000E+00  9.000E+00
      21     1     1     2   511   501  1.222438025E+01 -1.400646017E+01 -1.749224047E+02  1.759075441E+02  1.907348633E-06  0.00000E+00  9.000E+00
#pdf  -2  2 0.50077014E-03 0.96923130E-01 0.90568313E+02 0.18911772E+01 0.60474683E+00
#rwgt            1           4   1538.8871204744855         54217137    18404216           0
</event>
<event>
      6  10013  3.31628E+03  6.69613E+00 -1.00000E+00  2.18241E-01
      21    -1     0     0   501   511  0.000000000E+00  0.000000000E+00  4.247347697E+01  4.247347697E+01  0.000000000E+00  0.00000E+00  9.000E+00
      -2    -1     0     0     0   501  0.000000000E+00  0.000000000E+00 -7.738589751E+00  7.738589751E+00  0.000000000E+00  0.00000E+00  9.000E+00
      23     2     1     2     0     0 -4.854135906E+00 -4.612545802E+00  2.256544598E+01  3.632201582E+01  2.766317527E+01  0.00000E+00  9.000E+00
      13     1     3     3     0     0 -6.809604160E+00  2.897818254E+00 -4.161431579E+00  8.490979680E+00  1.056583668E-01  0.00000E+00  9.000E+00
     -13     1     3     3     0     0  1.955468254E+00 -7.510364056E+00  2.672687756E+01  2.783103614E+01  1.056583668E-01  0.00000E+00  9.000E+00
      -2     1     1     2     0   511  4.854135906E+00  4.612545802E+00  1.216944123E+01  1.389005090E+01  0.000000000E+00  0.00000E+00  9.000E+00
#pdf   2 -2 0.44026587E-02 0.10284954E-02 0.27663175E+02 0.81369174E+00 0.11409734E+01
#rwgt            1           7   841.93399017986883         54217137    18404359           0
</event>
<event>
      6  10013  3.31628E+03  1.55468E+01 -1.00000E+00  1.75884E-01
      -3    -1     0     0     0   501  0.000000000E+00  0.000000000E+00  2.082952369E+01  2.082952369E+01  0.000000000E+00  0.00000E+00  9.000E+00
       3    -1     0     0   511     0  0.000000000E+00  0.000000000E+00 -1.174115108E+02  1.174115108E+02  0.000000000E+00  0.00000E+00  9.000E+00
      23     2     1     2     0     0 -2.034329729E+00  1.541315185E+01 -7.171760730E+01  1.089162816E+02  8.048377139E+01  0.00000E+00  9.000E+00
      13     1     3     3     0     0 -2.279293702E+01 -2.433948025E+01 -1.487611917E+01  3.651353669E+01  1.056583668E-01  0.00000E+00  9.000E+00
     -13     1     3     3     0     0  2.075860729E+01  3.975263210E+01 -5.684148813E+01  7.240274492E+01  1.056583668E-01  0.00000E+00  9.000E+00
      21     1     1     2   511   501  2.034329729E+00 -1.541315185E+01 -2.486437977E+01  2.932475283E+01  5.840038640E-07  0.00000E+00  9.000E+00
#pdf  -3  3 0.28095003E-02 0.13642716E-01 0.80483771E+02 0.89692289E+00 0.40543462E+00
#rwgt            1           3   502.83696723126855         54217137    18404413           0
</event>
<event>
      6  10013  3.31628E+03  3.41948E+01 -1.00000E+00  1.49161E-01
       5    -1     0     0   501     0  0.000000000E+00  0.000000000E+00  2.604459557E+01  2.604459557E+01  0.000000000E+00  0.00000E+00  9.000E+00
      21    -1     0     0   511   501  0.000000000E+00  0.000000000E+00 -2.615231785E+02  2.615231785E+02  0.000000000E+00  0.00000E+00  9.000E+00
      23     2     1     2     0     0  1.882719830E+01 -2.854509563E+01 -7.058691613E+01  1.191678107E+02  8.971715833E+01  0.00000E+00  9.000E+00
      13     1     3     3     0     0  2.481144336E+01 -3.688512761E+01  3.295468913E+00  4.457568440E+01  1.056583668E-01  0.00000E+00  9.000E+00
     -13     1     3     3     0     0 -5.984245063E+00  8.340031988E+00 -7.388238504E+01  7.459212630E+01  1.056583668E-01  0.00000E+00  9.000E+00
       5     1     1     2   511     0 -1.882719830E+01  2.854509563E+01 -1.648916668E+02  1.683999634E+02  0.000000000E+00  0.00000E+00  9.000E+00
#pdf   5 -5 0.34919548E-02 0.13639414E-01 0.89717158E+02 0.43595596E+00 0.17359893E+00
#rwgt            1          10   116.11504496452631         54217137    18404463           0
</event>
<event>
      6  10013  3.31628E+03  2.04907E+01 -1.00000E+00  1.65464E-01
       5    -1     0     0   501     0  0.000000000E+00  0.000000000E+00  3.297511290E+02  3.297511290E+02  0.000000000E+00  0.00000E+00  9.000E+00
      21    -1     0     0   511   501  0.000000000E+00  0.000000000E+00 -1.284183945E+01  1.284183945E+01  0.000000000E+00  0.00000E+00  9.000E+00
      23     2     1     2     0     0 -1.882475535E+01  8.092936149E+00  3.060072352E+02  3.193825868E+02  8.913440243E+01  0.00000E+00  9.000E+00
      13     1     3     3     0     0 -5.435830230E+01 -2.391868654E+00  1.822014314E+02  1.901523569E+02  1.056583668E-01  0.00000E+00  9.000E+00
     -13     1     3     3     0     0  3.553354695E+01  1.048480480E+01  1.238058038E+02  1.292302298E+02  1.056583668E-01  0.00000E+00  9.000E+00
       5     1     1     2   511     0  1.882475535E+01 -8.092936149E+00  1.090205435E+01  2.321038169E+01  0.000000000E+00  0.00000E+00  9.000E+00
#pdf   5 -5 0.46884016E-01 0.10027189E-02 0.89134402E+02 0.51981550E-01 0.84556643E+00
#rwgt            1          10   64.740160388490295         54217137    18404568           0
</event>
<event>
      6  10013  3.31628E+03  2.80171E+00 -1.00000E+00  3.06032E-01
       4    -1     0     0   501     0  0.000000000E+00  0.000000000E+00  1.062395348E+02  1.062395348E+02  0.000000000E+00  0.00000E+00  9.000E+00
      21    -1     0     0   511   501  0.000000000E+00  0.000000000E+00 -3.394355305E+00  3.394355305E+00  0.000000000E+00  0.00000E+00  9.000E+00
      23     2     1     2     0     0  1.203545642E+00  2.530028707E+00  1.037218794E+02  1.066982181E+02  2.486829131E+01  0.00000E+00  9.000E+00
      13     1     3     3     0     0 -1.154617336E+01 -8.754897269E-01  4.105592402E+01  4.265771516E+01  1.056583668E-01  0.00000E+00  9.000E+00
     -13     1     3     3     0     0  1.274971900E+01  3.405518434E+00  6.266595539E+01  6.404050296E+01  1.056583668E-01  0.00000E+00  9.000E+00
       4     1     1     2   511     0 -1.203545642E+00 -2.530028707E+00 -8.766999059E-01  2.935672001E+00  0.000000000E+00  0.00000E+00  9.000E+00
#pdf   4 -4 0.16084406E-01 0.22750983E-03 0.24868291E+02 0.20816121E+00 0.14478729E+01
#rwgt            1           9   275.36807736029573         54217137    18404805           0
</event>
<event>
      6  10013  3.31628E+03  1.28379E+01 -1.00000E+00  1.83947E-01
      -3    -1     0     0     0   501  0.000000000E+00  0.000000000E+00  7.078794222E+01  7.078794222E+01  0.000000000E+00  0.00000E+00  9.000E+00
       3    -1     0     0   511     0  0.000000000E+00  0.000000000E+00 -1.420084701E+02  1.420084701E+02  0.000000000E+00  0.00000E+00  9.000E+00
      23     2     1     2     0     0  1.868945940E+00  1.270113066E+01  3.913591330E+01  1.016957562E+02  9.298169412E+01  0.00000E+00  9.000E+00
      13     1     3     3     0     0 -4.358332215E+01  1.934329039E+01  1.625687213E+01  5.037822851E+01  1.056583668E-01  0.00000E+00  9.000E+00
     -13     1     3     3     0     0  4.545226809E+01 -6.642159730E+00  2.287904117E+01  5.131752770E+01  1.056583668E-01  0.00000E+00  9.000E+00
      21     1     1     2   511   501 -1.868945940E+00 -1.270113066E+01 -1.103564411E+02  1.111006561E+02  1.907348633E-06  0.00000E+00  9.000E+00
#pdf  -3  3 0.10731401E-01 0.47670726E-02 0.92981694E+02 0.47079205E+00 0.71649981E+00
#rwgt            1           3   464.78958359592349         54217137    18404934           0
</event>
<event>
      6  10013  3.31628E+03  1.58334E+01 -1.00000E+00  1.75153E-01
      -3    -1     0     0     0   501  0.000000000E+00  0.000000000E+00  7.378937899E+01  7.378937899E+01  0.000000000E+00  0.00000E+00  9.000E+00
       3    -1     0     0   511     0  0.000000000E+00  0.000000000E+00 -4.457578105E+01  4.457578105E+01  0.000000000E+00  0.00000E+00  9.000E+00
      23     2     1     2     0     0  1.042919046E+00  1.579899851E+01  3.740394083E+01  1.005388382E+02  9.196905545E+01  0.00000E+00  9.000E+00
      13     1     3     3     0     0 -1.692413364E+01  5.131149620E+00  6.418130911E+01  6.657331747E+01  1.056583668E-01  0.00000E+00  9.000E+00
     -13     1     3     3     0     0  1.796705269E+01  1.066784889E+01 -2.677736828E+01  3.396552072E+01  1.056583668E-01  0.00000E+00  9.000E+00
      21     1     1     2   511   501 -1.042919046E+00 -1.579899851E+01 -8.190342890E+00  1.782632185E+01  3.153981341E-07  0.00000E+00  9.000E+00
#pdf  -3  3 0.10457145E-01 0.47861205E-02 0.91969055E+02 0.47730328E+00 0.71428483E+00
#rwgt            1           3   326.45274443142421         54217137    18404977           0
</event>
<event>
      6  10013  3.31628E+03  3.78519E+00 -1.00000E+00  2.69136E-01
       2    -1     0     0   511     0  0.000000000E+00  0.000000000E+00  1.034055018E+01  1.034055018E+01  0.000000000E+00  0.00000E+00  9.000E+00
      -2    -1     0     0     0   501  0.000000000E+00  0.000000000E+00 -7.441133521E+01  7.441133521E+01  0.000000000E+00  0.00000E+00  9.000E+00
      23     2     1     2     0     0  2.628042290E+00 -2.724167102E+00 -6.026889668E+01  7.938699511E+01  5.153277980E+01  0.00000E+00  9.000E+00
      13     1     3     3     0     0 -1.478745351E+01  3.873205243E+00  1.030161546E+00  1.532132163E+01  1.056583668E-01  0.00000E+00  9.000E+00
     -13     1     3     3     0     0  1.741549579E+01 -6.597372345E+00 -6.129905823E+01  6.406567348E+01  1.056583668E-01  0.00000E+00  9.000E+00
      21     1     1     2   511   501 -2.628042290E+00  2.724167102E+00 -3.801888351E+00  5.364890279E+00  0.000000000E+00  0.00000E+00  9.000E+00
#pdf   2 -2 0.14666718E-02 0.10713898E-01 0.51532780E+02 0.12207315E+01 0.48199323E+00
#rwgt            1           7   496.29588047012663         54217137    18405025           0
</event>
<event>
      6  10013  3.31628E+03  5.04792E+00 -1.00000E+00  2.37707E-01
       2    -1     0     0   501     0  0.000000000E+00  0.000000000E+00  3.068767080E+01  3.068767080E+01  0.000000000E+00  0.00000E+00  9.000E+00
      21    -1     0     0   511   501  0.000000000E+00  0.000000000E+00 -2.072640938E+01  2.072640938E+01  0.000000000E+00  0.00000E+00  9.000E+00
      23     2     1     2     0     0 -1.492935037E+00  4.822094783E+00  2.172598440E+01  3.861212096E+01  3.151818577E+01  0.00000E+00  9.000E+00
      13     1     3     3     0     0 -1.437832779E+01  4.606972825E+00  2.078494939E+01  2.569018866E+01  1.056583668E-01  0.00000E+00  9.000E+00
     -13     1     3     3     0     0  1.288539275E+01  2.151219573E-01  9.410350108E-01  1.292193230E+01  1.056583668E-01  0.00000E+00  9.000E+00
       2     1     1     2   511     0  1.492935037E+00 -4.822094783E+00 -1.176472297E+01  1.280195921E+01  0.000000000E+00  0.00000E+00  9.000E+00
#pdf   2 -2 0.45829861E-02 0.12825880E-02 0.31518186E+02 0.82085443E+00 0.10852059E+01
#rwgt            1           7   738.60818818247958         54217137    18405173           0
</event>
<event>
      6  10013  3.31628E+03  4.82151E+00 -1.00000E+00  2.45620E-01
      -1    -1     0     0     0   511  0.000000000E+00  0.000000000E+00  2.885199047E+01  2.885199047E+01  0.000000000E+00  0.00000E+00  9.000E+00
       1    -1     0     0   501     0  0.000000000E+00  0.000000000E+00 -1.319646626E+02  1.319646626E+02  0.000000000E+00  0.00000E+00  9.000E+00
      23     2     1     2     0     0 -4.398057676E+00  1.975855106E+00 -1.166548018E+02  1.464418074E+02  8.839464497E+01  0.00000E+00  9.000E+00
      13     1     3     3     0     0  4.849004858E+00  4.443440030E+01 -6.586435772E+01  7.959933140E+01  1.056583668E-01  0.00000E+00  9.000E+00
     -13     1     3     3     0     0 -9.247062534E+00 -4.245854519E+01 -5.079044406E+01  6.684247599E+01  1.056583668E-01  0.00000E+00  9.000E+00
      21     1     1     2   501   511  4.398057676E+00 -1.975855106E+00  1.354212962E+01  1.437484571E+01  1.685873940E-07  0.00000E+00  9.000E+00
#pdf  -1  1 0.22879072E-02 0.20208162E-01 0.88394645E+02 0.10395356E+01 0.55305138E+00
#rwgt            1           5   627.61869878302582         54217137    18405242           0
</event>
<event>
      6  10013  3.31628E+03  5.63411E+00 -1.00000E+00  2.29719E-01
      -3    -1     0     0     0   511  0.000000000E+00  0.000000000E+00  3.602254017E+02  3.602254017E+02  0.000000000E+00  0.00000E+00  9.000E+00
       3    -1     0     0   501     0  0.000000000E+00  0.000000000E+00 -6.963492970E+00  6.963492970E+00  0.000000000E+00  0.00000E+00  9.000E+00
      23     2     1     2     0     0  5.295046256E+00 -1.925020394E+00  2.991024785E+02  3.127371995E+02  9.116205417E+01  0.00000E+00  9.000E+00
      13     1     3     3     0     0  3.282884982E+01 -1.196438199E+01  4.511074708E+01  5.706023556E+01  1.056583668E-01  0.00000E+00  9.000E+00
     -13     1     3     3     0     0 -2.753380357E+01  1.003936159E+01  2.539917314E+02  2.556769640E+02  1.056583668E-01  0.00000E+00  9.000E+00
      21     1     1     2   501   511 -5.295046256E+00  1.925020394E+00  5.415943026E+01  5.445169515E+01  0.000000000E+00  0.00000E+00  9.000E+00
#pdf  -3  3 0.46974962E-01 0.10468273E-02 0.91162054E+02 0.15995912E+00 0.13828289E+01
#rwgt            1           3   393.65785848769116         54217137    18405293           0
</event>
<event>
      6  10013  3.31628E+03  1.63942E+01 -1.00000E+00  1.73777E-01
      21    -1     0     0   501   511  0.000000000E+00  0.000000000E+00  5.825419405E+00  5.825419405E+00  0.000000000E+00  0.00000E+00  9.000E+00
      -3    -1     0     0     0   501  0.000000000E+00  0.000000000E+00 -1.414246736E+03  1.414246736E+03  0.000000000E+00  0.00000E+00  9.000E+00
      23     2     1     2     0     0 -2.940345288E+00  1.612831934E+01 -1.400915353E+03  1.402041409E+03  5.373562499E+01  0.00000E+00  9.000E+00
      13     1     3     3     0     0 -2.621202671E+01  1.927765802E+01 -8.650285647E+02  8.656402991E+02  1.056583668E-01  0.00000E+00  9.000E+00
     -13     1     3     3     0     0  2.327168142E+01 -3.149338677E+00 -5.358867888E+02  5.364011102E+02  1.056583668E-01  0.00000E+00  9.000E+00
      -3     1     1     2     0   511  2.940345288E+00 -1.612831934E+01 -7.505962709E+00  1.803074572E+01  0.000000000E+00  0.00000E+00  9.000E+00
#pdf   3 -3 0.82849656E-04 0.20622779E+00 0.53735625E+02 0.31049765E+01 0.15713045E-01
#rwgt            1           8   18.955818428085490         54217137    18405390           0
</event>
<event>
      6  10013  3.31628E+03  1.28921E+01 -1.00000E+00  1.83761E-01
       4    -1     0     0   501     0  0.000000000E+00  0.000000000E+00  1.306888927E+02  1.306888927E+02  0.000000000E+00  0.00000E+00  9.000E+00
      21    -1     0     0   511   501  0.000000000E+00  0.000000000E+00 -2.227705365E+01  2.227705365E+01  0.000000000E+00  0.00000E+00  9.000E+00
      23     2     1     2     0     0 -6.764762417E+00 -1.097466824E+01  1.048504536E+02  1.395910138E+02  9.124597616E+01  0.00000E+00  9.000E+00
      13     1     3     3     0     0  1.665614321E+01 -3.641376119E+01  9.582326291E+01  1.038532522E+02  1.056583668E-01  0.00000E+00  9.000E+00
     -13     1     3     3     0     0 -2.342090563E+01  2.543909295E+01  9.027190669E+00  3.573776162E+01  1.056583668E-01  0.00000E+00  9.000E+00
       4     1     1     2   511     0  6.764762417E+00  1.097466824E+01  3.561385441E+00  1.337493251E+01  0.000000000E+00  0.00000E+00  9.000E+00
#pdf   4 -4 0.18618273E-01 0.26460700E-02 0.91245976E+02 0.22213579E+00 0.74719133E+00
#rwgt            1           9   166.29931727115874         54217137    18405441           0
</event>
<event>
      6  10013  3.31628E+03  2.09380E+00 -1.00000E+00  3.53828E-01
      -3    -1     0     0     0   501  0.000000000E+00  0.000000000E+00  4.461153288E+00  4.461153288E+00  0.000000000E+00  0.00000E+00  9.000E+00
       3    -1     0     0   511     0  0.000000000E+00  0.000000000E+00 -5.691762350E+01  5.691762350E+01  0.000000000E+00  0.00000E+00  9.000E+00
      23     2     1     2     0     0  2.058343394E+00  3.837067906E-01 -4.049981704E+01  4.924017870E+01  2.792805059E+01  0.00000E+00  9.000E+00
      13     1     3     3     0     0  1.019790753E+01  1.012291646E+01 -2.774740048E+01  3.124740234E+01  1.056583668E-01  0.00000E+00  9.000E+00
     -13     1     3     3     0     0 -8.139564141E+00 -9.739209671E+00 -1.275241656E+01  1.799277636E+01  1.056583668E-01  0.00000E+00  9.000E+00
      21     1     1     2   511   501 -2.058343394E+00 -3.837067906E-01 -1.195665317E+01  1.213859808E+01  1.685873940E-07  0.00000E+00  9.000E+00
#pdf  -3  3 0.67045394E-03 0.68837579E-02 0.27928051E+02 0.12808769E+01 0.52079262E+00
#rwgt            1           3   143.71225679216283         54217137    18405593           0
</event>
<event>
      6  10013  3.31628E+03  6.49976E+00 -1.00000E+00  2.20133E-01
       2    -1     0     0   501     0  0.000000000E+00  0.000000000E+00  1.882080875E+03  1.882080875E+03  0.000000000E+00  0.00000E+00  9.000E+00
      21    -1     0     0   511   501  0.000000000E+00  0.000000000E+00 -5.815624577E+00  5.815624577E+00  0.000000000E+00  0.00000E+00  9.000E+00
      23     2     1     2     0     0  4.648290017E+00 -4.543156856E+00  1.878637193E+03  1.880977469E+03  9.357504839E+01  0.00000E+00  9.000E+00
      13     1     3     3     0     0  1.569737182E+01  2.934323560E+01  1.559682048E+03  1.560037030E+03  1.056583668E-01  0.00000E+00  9.000E+00
     -13     1     3     3     0     0 -1.104908181E+01 -3.388639245E+01  3.189551455E+02  3.209404397E+02  1.056583668E-01  0.00000E+00  9.000E+00
       2     1     1     2   511     0 -4.648290017E+00  4.543156856E+00 -2.371942365E+00  6.919030632E+00  0.000000000E+00  0.00000E+00  9.000E+00
#pdf   2 -2 0.28850598E+00 0.17958853E-03 0.93575048E+02 0.35994630E+00 0.27817668E+01
#rwgt            1           7   2614.1491921554516         54217137    18405761           0
</event>
<event>
      6  10013  3.31628E+03  6.01753E+00 -1.00000E+00  2.25197E-01
      21    -1     0     0   511   501  0.000000000E+00  0.000000000E+00  5.299011363E+01  5.299011363E+01  0.000000000E+00  0.00000E+00  9.000E+00
       2    -1     0     0   501     0  0.000000000E+00  0.000000000E+00 -3.479533179E+01  3.479533179E+01  0.000000000E+00  0.00000E+00  9.000E+00
      23     2     1     2     0     0  2.273708380E+00  5.571433595E+00 -2.869094757E+01  4.051513503E+01  2.796596274E+01  0.00000E+00  9.000E+00
      13     1     3     3     0     0  1.498869129E+01  5.249136308E+00 -1.555719273E+01  2.223177249E+01  1.056583668E-01  0.00000E+00  9.000E+00
     -13     1     3     3     0     0 -1.271498291E+01  3.222972867E-01 -1.313375483E+01  1.828336254E+01  1.056583668E-01  0.00000E+00  9.000E+00
       2     1     1     2   511     0 -2.273708380E+00 -5.571433595E+00  4.688572940E+01  4.727031038E+01  0.000000000E+00  0.00000E+00  9.000E+00
#pdf  -2  2 0.88920100E-03 0.52044268E-02 0.27965963E+02 0.12032380E+01 0.78484116E+00
#rwgt            1           4   801.88531765959453         54217137    18405889           0
</event>
<event>
      6  10013  3.31628E+03  1.48756E+00 -1.00000E+00  4.47202E-01
       2    -1     0     0   511     0  0.000000000E+00  0.000000000E+00  1.054595863E+03  1.054595863E+03  0.000000000E+00  0.00000E+00  9.000E+00
      -2    -1     0     0     0   501  0.000000000E+00  0.000000000E+00 -1.371326470E-01  1.371326470E-01  0.000000000E+00  0.00000E+00  9.000E+00
      23     2     1     2     0     0 -5.557784597E-01  1.379831609E+00  8.618107933E+02  8.620793155E+02  2.146368870E+01  0.00000E+00  9.000E+00
      13     1     3     3     0     0  5.004024132E-01 -1.484967468E+00  8.444694194E+02  8.444708799E+02  1.056583668E-01  0.00000E+00  9.000E+00
     -13     1     3     3     0     0 -1.056180873E+00  2.864799078E+00  1.734137396E+01  1.760843565E+01  1.056583668E-01  0.00000E+00  9.000E+00
      21     1     1     2   511   501  5.557784597E-01 -1.379831609E+00  1.926479373E+02  1.926536804E+02  4.672030912E-06  0.00000E+00  9.000E+00
#pdf   2 -2 0.13228960E+00 0.20606124E-04 0.21463689E+02 0.61043830E+00 0.36123497E+01
#rwgt            1           7   4211.3809728051747         54217137    18405938           0
</event>
<event>
      6  10013  3.31628E+03  1.02777E+01 -1.00000E+00  1.94335E-01
       2    -1     0     0   501     0  0.000000000E+00  0.000000000E+00  8.597089173E+00  8.597089173E+00  0.000000000E+00  0.00000E+00  9.000E+00
      -2    -1     0     0     0   511  0.000000000E+00  0.000000000E+00 -6.383900877E+01  6.383900877E+01  0.000000000E+00  0.00000E+00  9.000E+00
      23     2     1     2     0     0 -8.548270795E+00  5.705934306E+00 -1.798604011E+01  3.378857311E+01  2.669343391E+01  0.00000E+00  9.000E+00
      13     1     3     3     0     0  2.286775450E-02 -4.851131531E+00 -1.951027136E+01  2.010462266E+01  1.056583668E-01  0.00000E+00  9.000E+00
     -13     1     3     3     0     0 -8.571138549E+00  1.055706584E+01  1.524231251E+00  1.368395044E+01  1.056583668E-01  0.00000E+00  9.000E+00
      21     1     1     2   501   511  8.548270795E+00 -5.705934306E+00 -3.725587948E+01  3.864752484E+01  0.000000000E+00  0.00000E+00  9.000E+00
#pdf   2 -2 0.11343995E-02 0.37166886E-02 0.26693434E+02 0.11646183E+01 0.70716782E+00
#rwgt            1           7   708.37322518752876         54217137    18406078           0
</event>
<event>
      6  10013  3.31628E+03  5.53821E+01 -1.00000E+00  1.36561E-01
       2    -1     0     0   501     0  0.000000000E+00  0.000000000E+00  5.288660181E+01  5.288660181E+01  0.000000000E+00  0.00000E+00  9.000E+00
      21    -1     0     0   511   501  0.000000000E+00  0.000000000E+00 -7.342828996E+01  7.342828996E+01  0.000000000E+00  0.00000E+00  9.000E+00
      23     2     1     2     0     0  5.083074866E+01  2.198667182E+01 -3.633108772E+00  6.840911654E+01  3.999286185E+01  0.00000E+00  9.000E+00
      13     1     3     3     0     0  1.771602991E+01 -6.123051749E+00  1.198641117E+01  2.224937516E+01  1.056583668E-01  0.00000E+00  9.000E+00
     -13     1     3     3     0     0  3.311471875E+01  2.810972357E+01 -1.561951995E+01  4.615974138E+01  1.056583668E-01  0.00000E+00  9.000E+00
       2     1     1     2   511     0 -5.083074866E+01 -2.198667182E+01 -1.690857938E+01  5.790577522E+01  0.000000000E+00  0.00000E+00  9.000E+00
#pdf   2 -2 0.29171090E-02 0.32443343E-02 0.39992862E+02 0.95386385E+00 0.79582735E+00
#rwgt            1           7   690.80913927203198         54217137    18406115           0
</event>
<event>
      6  10013  3.31628E+03  1.10985E+01 -1.00000E+00  1.90611E-01
      21    -1     0     0   511   501  0.000000000E+00  0.000000000E+00  3.673939558E+01  3.673939558E+01  0.000000000E+00  0.00000E+00  9.000E+00
       1    -1     0     0   501     0  0.000000000E+00  0.000000000E+00 -1.601558112E+02  1.601558112E+02  0.000000000E+00  0.00000E+00  9.000E+00
      23     2     1     2     0     0 -6.031580971E+00  9.316513953E+00 -1.441809995E+02  1.733506672E+02  9.559872277E+01  0.00000E+00  9.000E+00
      13     1     3     3     0     0 -3.395810611E+01  3.123831592E+01 -1.244608341E+02  1.327384487E+02  1.056583668E-01  0.00000E+00  9.000E+00
     -13     1     3     3     0     0  2.792652514E+01 -2.192180197E+01 -1.972016533E+01  4.061221851E+01  1.056583668E-01  0.00000E+00  9.000E+00
       1     1     1     2   511     0  6.031580971E+00 -9.316513953E+00  2.076458388E+01  2.354453960E+01  0.000000000E+00  0.00000E+00  9.000E+00
#pdf  -1  1 0.22288506E-02 0.24262554E-01 0.95598723E+02 0.10618050E+01 0.52915209E+00
#rwgt            1           5   894.65524328068147         54217137    18406189           0
</event>
<event>
      6  10013  3.31628E+03  7.05522E+00 -1.00000E+00  2.15001E-01
      -2    -1     0     0     0   511  0.000000000E+00  0.000000000E+00  4.997295628E+01  4.997295628E+01  0.000000000E+00  0.00000E+00  9.000E+00
       2    -1     0     0   501     0  0.000000000E+00  0.000000000E+00 -3.835418581E+01  3.835418581E+01  0.000000000E+00  0.00000E+00  9.000E+00
      23     2     1     2     0     0  6.830959368E+00 -1.764695893E+00 -2.662949775E+01  4.943361847E+01  4.104602694E+01  0.00000E+00  9.000E+00
      13     1     3     3     0     0 -1.415365977E+01 -8.241050827E+00 -2.123821227E+01  2.682002662E+01  1.056583668E-01  0.00000E+00  9.000E+00
     -13     1     3     3     0     0  2.098461914E+01  6.476354934E+00 -5.391285478E+00  2.261359185E+01  1.056583668E-01  0.00000E+00  9.000E+00
      21     1     1     2   501   511 -6.830959368E+00  1.764695893E+00  3.824826822E+01  3.889352362E+01  0.000000000E+00  0.00000E+00  9.000E+00
#pdf  -2  2 0.17288105E-02 0.57664451E-02 0.41046027E+02 0.10223001E+01 0.80381195E+00
#rwgt            1           4   985.93636021949692         54217137    18406293           0
</event>
<event>
      6  10013  3.31628E+03  6.24571E+00 -1.00000E+00  2.22722E-01
      21    -1     0     0   501   511  0.000000000E+00  0.000000000E+00  5.939991995E+00  5.939991995E+00  0.000000000E+00  0.00000E+00  9.000E+00
      -4    -1     0     0     0   501  0.000000000E+00  0.000000000E+00 -2.567799583E+02  2.567799583E+02  0.000000000E+00  0.00000E+00  9.000E+00
      23     2     1     2     0     0 -2.167923518E+00  5.857388101E+00 -2.541150813E+02  2.556676269E+02  2.743085866E+01  0.00000E+00  9.000E+00
      13     1     3     3     0     0 -3.794879619E+00 -2.869657957E+00 -2.286463357E+02  2.286958548E+02  1.056583668E-01  0.00000E+00  9.000E+00
     -13     1     3     3     0     0  1.626956101E+00  8.727046058E+00 -2.546874563E+01  2.697177203E+01  1.056583668E-01  0.00000E+00  9.000E+00
      -4     1     1     2     0   511  2.167923518E+00 -5.857388101E+00  3.275114969E+00  7.052323433E+00  0.000000000E+00  0.00000E+00  9.000E+00
#pdf   4 -4 0.11644630E-03 0.38235469E-01 0.27430859E+02 0.18858079E+01 0.10209838E+00
#rwgt            1           9   266.47192251386053         54217137    18406429           0
</event>
<event>
      6  10013  3.31628E+03  4.65172E+00 -1.00000E+00  2.48827E-01
       2    -1     0     0   501     0  0.000000000E+00  0.000000000E+00  5.635098268E+02  5.635098268E+02  0.000000000E+00  0.00000E+00  9.000E+00
      -2    -1     0     0     0   511  0.000000000E+00  0.000000000E+00 -4.225743593E+00  4.225743593E+00  0.000000000E+00  0.00000E+00  9.000E+00
      23     2     1     2     0     0 -3.424121109E+00 -3.148628752E+00  5.449549326E+02  5.526702784E+02  9.190712429E+01  0.00000E+00  9.000E+00
      13     1     3     3     0     0  3.571347821E+01  2.316051618E+01  3.205384762E+02  3.233524207E+02  1.056583668E-01  0.00000E+00  9.000E+00
     -13     1     3     3     0     0 -3.913759932E+01 -2.630914493E+01  2.244164564E+02  2.293178577E+02  1.056583668E-01  0.00000E+00  9.000E+00
      21     1     1     2   501   511  3.424121109E+00  3.148628752E+00  1.432915059E+01  1.506529206E+01  2.384185791E-07  0.00000E+00  9.000E+00
#pdf   2 -2 0.84324770E-01 0.59272942E-03 0.91907124E+02 0.61324936E+00 0.17783855E+01
#rwgt            1           7   1342.2212359258131         54217137    18406554           0
</event>
<event>
      6  10013  3.31628E+03  2.33657E+00 -1.00000E+00  3.34053E-01
       2    -1     0     0   501     0  0.000000000E+00  0.000000000E+00  7.287126782E+02  7.287126782E+02  0.000000000E+00  0.00000E+00  9.000E+00
      -2    -1     0     0     0   511  0.000000000E+00  0.000000000E+00 -3.097938870E+00  3.097938870E+00  0.000000000E+00  0.00000E+00  9.000E+00
      23     2     1     2     0     0  2.336277145E+00 -3.675176527E-02  7.179303140E+02  7.237788095E+02  9.179525941E+01  0.00000E+00  9.000E+00
      13     1     3     3     0     0 -4.255732248E+01  8.375677190E+00  4.385246547E+02  4.406644547E+02  1.056583668E-01  0.00000E+00  9.000E+00
     -13     1     3     3     0     0  4.489359963E+01 -8.412428955E+00  2.794056594E+02  2.831143548E+02  1.056583668E-01  0.00000E+00  9.000E+00
      21     1     1     2   501   511 -2.336277145E+00  3.675176527E-02  7.684425278E+00  8.031807608E+00  2.528810911E-07  0.00000E+00  9.000E+00
#pdf   2 -2 0.11086479E+00 0.44973859E-03 0.91795259E+02 0.59342848E+00 0.19746891E+01
#rwgt            1           7   1359.9780355882438         54217137    18406697           0
</event>
<event>
      6  10013  3.31628E+03  5.24869E+00 -1.00000E+00  2.34806E-01
       1    -1     0     0   501     0  0.000000000E+00  0.000000000E+00  3.042736321E+01  3.042736321E+01  0.000000000E+00  0.00000E+00  9.000E+00
      -1    -1     0     0     0   511  0.000000000E+00  0.000000000E+00 -7.644237657E+01  7.644237657E+01  0.000000000E+00  0.00000E+00  9.000E+00
      23     2     1     2     0     0  5.199549875E+00 -7.165142643E-01 -4.181693091E+01  1.001486827E+02  9.084907391E+01  0.00000E+00  9.000E+00
      13     1     3     3     0     0 -2.660673131E-01 -2.170481319E+01  2.310363876E+01  3.170108823E+01  1.056583668E-01  0.00000E+00  9.000E+00
     -13     1     3     3     0     0  5.465617189E+00  2.098829892E+01 -6.492056967E+01  6.844759450E+01  1.056583668E-01  0.00000E+00  9.000E+00
      21     1     1     2   501   511 -5.199549875E+00  7.165142643E-01 -4.198082448E+00  6.721057048E+00  8.429369702E-08  0.00000E+00  9.000E+00
#pdf   1 -1 0.44795881E-02 0.10902252E-01 0.90849074E+02 0.87732343E+00 0.51858299E+00
#rwgt            1           6   660.83221822351027         54217137    18406923           0
</event>
<event>
      6  10013  3.31628E+03  7.20304E+00 -1.00000E+00  2.13743E-01
       2    -1     0     0   501     0  0.000000000E+00  0.000000000E+00  5.209347938E+01  5.209347938E+01  0.000000000E+00  0.00000E+00  9.000E+00
      -2    -1     0     0     0   511  0.000000000E+00  0.000000000E+00 -4.844613111E+00  4.844613111E+00  0.000000000E+00  0.00000E+00  9.000E+00
      23     2     1     2     0     0 -6.788555825E+00  2.408181794E+00  4.358053342E+01  4.885474568E+01  2.087197768E+01  0.00000E+00  9.000E+00
      13     1     3     3     0     0 -8.901645358E+00  8.613672643E+00  1.462397527E+01  1.916524101E+01  1.056583668E-01  0.00000E+00  9.000E+00
     -13     1     3     3     0     0  2.113089533E+00 -6.205490849E+00  2.895655816E+01  2.968950468E+01  1.056583668E-01  0.00000E+00  9.000E+00
      21     1     1     2   501   511  6.788555825E+00 -2.408181794E+00  3.668332843E+00  8.083346806E+00  2.064765462E-07  0.00000E+00  9.000E+00
#pdf   2 -2 0.67214090E-02 0.38351307E-03 0.20871978E+02 0.71764006E+00 0.14742747E+01
#rwgt            1           7   887.82205819016269         54217137    18407025           0
</event>
<event>
      6  10013  3.31628E+03  1.04586E+01 -1.00000E+00  1.93476E-01
       2    -1     0     0   501     0  0.000000000E+00  0.000000000E+00  2.306423837E+03  2.306423837E+03  0.000000000E+00  0.00000E+00  9.000E+00
      -2    -1     0     0     0   511  0.000000000E+00  0.000000000E+00 -1.836799653E-01  1.836799653E-01  0.000000000E+00  0.00000E+00  9.000E+00
      23     2     1     2     0     0  6.433273393E+00  8.245933376E+00  2.079230856E+03  2.079357423E+03  2.041954618E+01  0.00000E+00  9.000E+00
      13     1     3     3     0     0 -6.696848243E+00 -3.762344555E-01  8.446307452E+02  8.446573839E+02  1.056583668E-01  0.00000E+00  9.000E+00
     -13     1     3     3     0     0  1.313012164E+01  8.622167831E+00  1.234600111E+03  1.234700039E+03  1.056583668E-01  0.00000E+00  9.000E+00
      21     1     1     2   501   511 -6.433273393E+00 -8.245933376E+00  2.270093006E+02  2.272500935E+02  4.672030912E-06  0.00000E+00  9.000E+00
#pdf   2 -2 0.28471828E+00 0.86654300E-05 0.20419546E+02 0.43266167E+00 0.45342642E+01
#rwgt            1           7   10303.713555125176         54217137    18407095           0
</event>
<event>
      6  10013  3.31628E+03  4.62401E+00 -1.00000E+00  2.49370E-01
       2    -1     0     0   501     0  0.000000000E+00  0.000000000E+00  7.936722775E+01  7.936722775E+01  0.000000000E+00  0.00000E+00  9.000E+00
      21    -1     0     0   511   501  0.000000000E+00  0.000000000E+00 -3.931364028E+01  3.931364028E+01  0.000000000E+00  0.00000E+00  9.000E+00
      23     2     1     2     0     0 -1.119021967E+00  4.486562662E+00  5.332785990E+01  1.046242766E+02  8.989436663E+01  0.00000E+00  9.000E+00
      13     1     3     3     0     0  6.659037852E-01 -1.782527747E+01  7.280178362E+01  7.495528538E+01  1.056583668E-01  0.00000E+00  9.000E+00
     -13     1     3     3     0     0 -1.784925752E+00  2.231184013E+01 -1.947392372E+01  2.966899120E+01  1.056583668E-01  0.00000E+00  9.000E+00
       2     1     1     2   511     0  1.119021967E+00 -4.486562662E+00 -1.327427243E+01  1.405659145E+01  0.000000000E+00  0.00000E+00  9.000E+00
#pdf   2 -2 0.12134122E-01 0.39406684E-02 0.89894367E+02 0.73363881E+00 0.81443179E+00
#rwgt            1           7   574.04847279972569         54217137    18407193           0
</event>
<event>
      6  10013  3.31628E+03  2.15768E+01 -1.00000E+00  1.63655E-01
       1    -1     0     0   501     0  0.000000000E+00  0.000000000E+00  2.375400190E+03  2.375400190E+03  0.000000000E+00  0.00000E+00  9.000E+00
      21    -1     0     0   511   501  0.000000000E+00  0.000000000E+00 -1.551343921E+00  1.551343921E+00  0.000000000E+00  0.00000E+00  9.000E+00
      23     2     1     2     0     0 -1.506571662E+01  1.544611942E+01  2.152933796E+03  2.154985281E+03  9.149901453E+01  0.00000E+00  9.000E+00
      13     1     3     3     0     0 -1.996962461E+01  1.826424213E+01  1.781860504E+02  1.802294320E+02  1.056583668E-01  0.00000E+00  9.000E+00
     -13     1     3     3     0     0  4.903907992E+00 -2.818122705E+00  1.974747746E+03  1.974755849E+03  1.056583668E-01  0.00000E+00  9.000E+00
       1     1     1     2   511     0  1.506571662E+01 -1.544611942E+01  2.209150497E+02  2.219662533E+02  0.000000000E+00  0.00000E+00  9.000E+00
#pdf   1 -1 0.32253195E+00 0.15359369E-03 0.91499015E+02 0.11378477E+00 0.29324353E+01
#rwgt            1           6   634.64377848732101         54217137    18407270           0
</event>
<event>
      6  10013  3.31628E+03  8.46916E+00 -1.00000E+00  2.04422E-01
       4    -1     0     0   501     0  0.000000000E+00  0.000000000E+00  7.056074169E+00  7.056074169E+00  0.000000000E+00  0.00000E+00  9.000E+00
      21    -1     0     0   511   501  0.000000000E+00  0.000000000E+00 -1.440846911E+02  1.440846911E+02  0.000000000E+00  0.00000E+00  9.000E+00
      23     2     1     2     0     0  3.879723934E+00  7.528241353E+00 -4.002473792E+01  5.376787778E+01  3.488951647E+01  0.00000E+00  9.000E+00
      13     1     3     3     0     0 -1.423713562E+01  2.661544218E+00 -2.788712973E+01  3.142424250E+01  1.056583668E-01  0.00000E+00  9.000E+00
     -13     1     3     3     0     0  1.811685956E+01  4.866697134E+00 -1.213760819E+01  2.234363528E+01  1.056583668E-01  0.00000E+00  9.000E+00
       4     1     1     2   511     0 -3.879723934E+00 -7.528241353E+00 -9.700387899E+01  9.737288747E+01  0.000000000E+00  0.00000E+00  9.000E+00
#pdf   4 -4 0.10273307E-02 0.70112094E-02 0.34889516E+02 0.92528880E+00 0.37440785E+00
#rwgt            1           9   513.16747534446063         54217137    18407309           0
</event>
<event>
      6  10013  3.31628E+03  5.59586E+00 -1.00000E+00  2.30198E-01
       1    -1     0     0   501     0  0.000000000E+00  0.000000000E+00  6.977229480E+02  6.977229480E+02  0.000000000E+00  0.00000E+00  9.000E+00
      -1    -1     0     0     0   511  0.000000000E+00  0.000000000E+00 -7.099307878E+00  7.099307878E+00  0.000000000E+00  0.00000E+00  9.000E+00
      23     2     1     2     0     0 -1.643257235E+00 -5.349147981E+00  6.929372612E+02  6.987669671E+02  8.989945866E+01  0.00000E+00  9.000E+00
      13     1     3     3     0     0 -1.687359818E+01  7.182050606E+00  6.608383913E+02  6.610928004E+02  1.056583668E-01  0.00000E+00  9.000E+00
     -13     1     3     3     0     0  1.523034095E+01 -1.253119859E+01  3.209886989E+01  3.767416668E+01  1.056583668E-01  0.00000E+00  9.000E+00
      21     1     1     2   501   511  1.643257235E+00  5.349147981E+00 -2.313621154E+00  6.055288705E+00  4.470348358E-07  0.00000E+00  9.000E+00
#pdf   1 -1 0.10684738E+00 0.44757268E-03 0.89899459E+02 0.35163945E+00 0.19763355E+01
#rwgt            1           6   1174.0558448286799         54217137    18407390           0
</event>
<event>
      6  10013  3.31628E+03  7.94251E+00 -1.00000E+00  2.08015E-01
      21    -1     0     0   501   511  0.000000000E+00  0.000000000E+00  2.597482418E+01  2.597482418E+01  0.000000000E+00  0.00000E+00  9.000E+00
      -2    -1     0     0     0   501  0.000000000E+00  0.000000000E+00 -1.553384770E+01  1.553384770E+01  0.000000000E+00  0.00000E+00  9.000E+00
      23     2     1     2     0     0  4.656254817E+00  6.434502581E+00  4.869547679E+00  3.180690135E+01  3.041188824E+01  0.00000E+00  9.000E+00
      13     1     3     3     0     0 -2.064422248E+00 -1.100366106E+01  6.668837861E+00  1.303176726E+01  1.056583668E-01  0.00000E+00  9.000E+00
     -13     1     3     3     0     0  6.720677065E+00  1.743816364E+01 -1.799290182E+00  1.877513409E+01  1.056583668E-01  0.00000E+00  9.000E+00
      -2     1     1     2     0   511 -4.656254817E+00 -6.434502581E+00  5.571428807E+00  9.701770526E+00  0.000000000E+00  0.00000E+00  9.000E+00
#pdf   2 -2 0.27297081E-02 0.20048591E-02 0.30411888E+02 0.93076059E+00 0.91508219E+00
#rwgt            1           7   990.57313594567722         54217137    18407521           0
</event>
<event>
      6  10013  3.31628E+03  7.04706E+01 -1.00000E+00  1.31048E-01
       2    -1     0     0   501     0  0.000000000E+00  0.000000000E+00  9.975647060E+02  9.975647060E+02  0.000000000E+00  0.00000E+00  9.000E+00
      21    -1     0     0   511   501  0.000000000E+00  0.000000000E+00 -8.589341107E+00  8.589341107E+00  0.000000000E+00  0.00000E+00  9.000E+00
      23     2     1     2     0     0 -4.347208638E+01  5.546430981E+01  6.339508664E+02  6.442030747E+02  9.020969116E+01  0.00000E+00  9.000E+00
      13     1     3     3     0     0  1.770557706E+01  4.416102415E+01  1.876907792E+02  1.936272792E+02  1.056583668E-01  0.00000E+00  9.000E+00
     -13     1     3     3     0     0 -6.117766343E+01  1.130328566E+01  4.462600873E+02  4.505757954E+02  1.056583668E-01  0.00000E+00  9.000E+00
       2     1     1     2   511     0  4.347208638E+01 -5.546430981E+01  3.550244985E+02  3.619509725E+02  0.000000000E+00  0.00000E+00  9.000E+00
#pdf   2 -2 0.77480554E-01 0.62147973E-03 0.90209691E+02 0.61766369E+00 0.17405248E+01
#rwgt            1           7   1093.1952386319997         54217137    18407586           0
</event>
<event>
      6  10013  3.31628E+03  3.27571E+00 -1.00000E+00  2.85614E-01
      21    -1     0     0   511   501  0.000000000E+00  0.000000000E+00  2.931992321E+02  2.931992321E+02  0.000000000E+00  0.00000E+00  9.000E+00
       3    -1     0     0   501     0  0.000000000E+00  0.000000000E+00 -7.846744314E+00  7.846744314E+00  0.000000000E+00  0.00000E+00  9.000E+00
      23     2     1     2     0     0  2.127010583E+00 -2.491204329E+00  2.754310785E+02  2.905977882E+02  9.259624872E+01  0.00000E+00  9.000E+00
      13     1     3     3     0     0  6.419291929E+00 -9.227710423E+00 -3.328458902E+00  1.172381128E+01  1.056583668E-01  0.00000E+00  9.000E+00
     -13     1     3     3     0     0 -4.292281346E+00  6.736506094E+00  2.787595374E+02  2.788739770E+02  1.056583668E-01  0.00000E+00  9.000E+00
       3     1     1     2   511     0 -2.127010583E+00  2.491204329E+00  9.921409292E+00  1.044818814E+01  0.000000000E+00  0.00000E+00  9.000E+00
#pdf  -3  3 0.43513462E-01 0.11659406E-02 0.92596249E+02 0.17224538E+00 0.13270797E+01
#rwgt            1           3   704.86451927116036         54217137    18407678           0
</event>
<event>
      6  10013  3.31628E+03  2.47206E+00 -1.00000E+00  3.24781E-01
       1    -1     0     0   501     0  0.000000000E+00  0.000000000E+00  4.507686494E+01  4.507686494E+01  0.000000000E+00  0.00000E+00  9.000E+00
      -1    -1     0     0     0   511  0.000000000E+00  0.000000000E+00 -4.946923503E+01  4.946923503E+01  0.000000000E+00  0.00000E+00  9.000E+00
      23     2     1     2     0     0 -2.268392436E+00  9.825937525E-01 -4.141041477E+00  9.206129398E+01  9.193488201E+01  0.00000E+00  9.000E+00
      13     1     3     3     0     0  3.082402418E+01 -2.737009027E+01  1.578934946E+01  4.414246287E+01  1.056583668E-01  0.00000E+00  9.000E+00
     -13     1     3     3     0     0 -3.309241662E+01  2.835268402E+01 -1.993039094E+01  4.791883111E+01  1.056583668E-01  0.00000E+00  9.000E+00
      21     1     1     2   501   511  2.268392436E+00 -9.825937525E-01 -2.513286061E-01  2.484805987E+00  5.268356064E-09  0.00000E+00  9.000E+00
#pdf   1 -1 0.67606527E-02 0.73975058E-02 0.91934882E+02 0.76507901E+00 0.62488198E+00
#rwgt            1           6   650.99031689499236         54217137    18407909           0
</event>
<event>
      6  10013  3.31628E+03  3.33060E+00 -1.00000E+00  2.83611E-01
       1    -1     0     0   501     0  0.000000000E+00  0.000000000E+00  1.672272021E+03  1.672272021E+03  0.000000000E+00  0.00000E+00  9.000E+00
      -1    -1     0     0     0   511  0.000000000E+00  0.000000000E+00 -1.369492875E+00  1.369492875E+00  0.000000000E+00  0.00000E+00  9.000E+00
      23     2     1     2     0     0  3.001630044E+00 -1.443304315E+00  1.640825256E+03  1.643380397E+03  9.154515187E+01  0.00000E+00  9.000E+00
      13     1     3     3     0     0 -8.656434620E+00 -1.532882025E+01  1.575150829E+03  1.575249203E+03  1.056583668E-01  0.00000E+00  9.000E+00
     -13     1     3     3     0     0  1.165806466E+01  1.388551593E+01  6.567442681E+01  6.813119348E+01  1.056583668E-01  0.00000E+00  9.000E+00
      21     1     1     2   501   511 -3.001630044E+00  1.443304315E+00  3.007727211E+01  3.026111710E+01  7.539457465E-07  0.00000E+00  9.000E+00
#pdf   1 -1 0.25246417E+00 0.19641934E-03 0.91545152E+02 0.17439386E+00 0.26847226E+01
#rwgt            1           6   1219.7540793347373         54217137    18408028           0
</event>
<event>
      6  10013  3.31628E+03  1.31256E+01 -1.00000E+00  1.82974E-01
      -2    -1     0     0     0   511  0.000000000E+00  0.000000000E+00  8.034904075E-01  8.034904075E-01  0.000000000E+00  0.00000E+00  9.000E+00
       2    -1     0     0   501     0  0.000000000E+00  0.000000000E+00 -3.511782768E+03  3.511782768E+03  0.000000000E+00  0.00000E+00  9.000E+00
      23     2     1     2     0     0  1.294794614E+01 -2.152371186E+00 -3.223720344E+03  3.225027609E+03  9.087320545E+01  0.00000E+00  9.000E+00
      13     1     3     3     0     0 -2.786457408E+01  2.183655493E+01 -2.116003125E+03  2.116299248E+03  1.056583668E-01  0.00000E+00  9.000E+00
     -13     1     3     3     0     0  4.081252021E+01 -2.398892611E+01 -1.107717219E+03  1.108728361E+03  1.056583668E-01  0.00000E+00  9.000E+00
      21     1     1     2   501   511 -1.294794614E+01  2.152371186E+00 -2.872589337E+02  2.875586497E+02  5.394796609E-06  0.00000E+00  9.000E+00
#pdf  -2  2 0.99526008E-04 0.49096260E+00 0.90873205E+02 0.34103799E+01 0.11471349E+00
#rwgt            1           4   1959.0039866828417         54217137    18408156           0
</event>
<event>
      6  10013  3.31628E+03  6.30993E+01 -1.00000E+00  1.33518E-01
       3    -1     0     0   501     0  0.000000000E+00  0.000000000E+00  1.299231473E+01  1.299231473E+01  0.000000000E+00  0.00000E+00  9.000E+00
      21    -1     0     0   511   501  0.000000000E+00  0.000000000E+00 -5.901569839E+02  5.901569839E+02  0.000000000E+00  0.00000E+00  9.000E+00
      23     2     1     2     0     0 -4.455630186E+01 -4.467945601E+01 -3.603922906E+02  3.773799873E+02  9.247450388E+01  0.00000E+00  9.000E+00
      13     1     3     3     0     0  2.255429407E+01 -1.085980340E+01 -1.833079179E+02  1.850092847E+02  1.056583668E-01  0.00000E+00  9.000E+00
     -13     1     3     3     0     0 -6.711059593E+01 -3.381965261E+01 -1.770843728E+02  1.923707027E+02  1.056583668E-01  0.00000E+00  9.000E+00
       3     1     1     2   511     0  4.455630186E+01  4.467945601E+01 -2.167723786E+02  2.257693113E+02  0.000000000E+00  0.00000E+00  9.000E+00
#pdf   3 -3 0.10794058E-02 0.46878378E-01 0.92474504E+02 0.13690315E+01 0.16029350E+00
#rwgt            1           8   215.76197467098936         54217137    18408296           0
</event>
<event>
      6  10013  3.31628E+03  2.65441E+01 -1.00000E+00  1.56789E-01
      -1    -1     0     0     0   501  0.000000000E+00  0.000000000E+00  4.003530518E+01  4.003530518E+01  0.000000000E+00  0.00000E+00  9.000E+00
      21    -1     0     0   501   511  0.000000000E+00  0.000000000E+00 -2.994136768E+02  2.994136768E+02  0.000000000E+00  0.00000E+00  9.000E+00
      23     2     1     2     0     0  2.392465685E+01 -1.149774448E+01 -1.799583923E+01  9.661135253E+01  9.113350577E+01  0.00000E+00  9.000E+00
      13     1     3     3     0     0 -1.432800018E+01 -6.286601773E+00  3.070669258E+01  3.446338758E+01  1.056583668E-01  0.00000E+00  9.000E+00
     -13     1     3     3     0     0  3.825265703E+01 -5.211142706E+00 -4.870253181E+01  6.214796495E+01  1.056583668E-01  0.00000E+00  9.000E+00
      -1     1     1     2     0   511 -2.392465685E+01  1.149774448E+01 -2.413825324E+02  2.428376295E+02  0.000000000E+00  0.00000E+00  9.000E+00
#pdf  -1  1 0.58060787E-02 0.84642120E-02 0.91133506E+02 0.69785810E+00 0.71136513E+00
#rwgt            1           5   458.43144049295654         54217137    18408386           0
</event>
<event>
      6  10013  3.31628E+03  8.28014E+00 -1.00000E+00  2.05670E-01
      -3    -1     0     0     0   511  0.000000000E+00  0.000000000E+00  6.358656638E+01  6.358656638E+01  0.000000000E+00  0.00000E+00  9.000E+00
       3    -1     0     0   501     0  0.000000000E+00  0.000000000E+00 -4.199552821E+01  4.199552821E+01  0.000000000E+00  0.00000E+00  9.000E+00
      23     2     1     2     0     0 -6.478722850E+00 -5.156246329E+00  1.567984677E+01  9.540845661E+01  9.374622804E+01  0.00000E+00  9.000E+00
      13     1     3     3     0     0  3.826167993E+01 -2.441687521E+01  6.799730345E+00  4.589539675E+01  1.056583668E-01  0.00000E+00  9.000E+00
     -13     1     3     3     0     0 -4.474040278E+01  1.926062888E+01  8.880116421E+00  4.951305987E+01  1.056583668E-01  0.00000E+00  9.000E+00
      21     1     1     2   501   511  6.478722850E+00  5.156246329E+00  5.911191399E+00  1.017363798E+01  1.884864366E-07  0.00000E+00  9.000E+00
#pdf  -3  3 0.85121158E-02 0.61091864E-02 0.93746228E+02 0.53503585E+00 0.63509956E+00
#rwgt            1           3   428.12904847605000         54217137    18408439           0
</event>
<event>
      6  10013  3.31628E+03  6.90656E+00 -1.00000E+00  2.16310E-01
      -5    -1     0     0     0   501  0.000000000E+00  0.000000000E+00  1.134819814E+01  1.134819814E+01  0.000000000E+00  0.00000E+00  9.000E+00
      21    -1     0     0   501   511  0.000000000E+00  0.000000000E+00 -4.869942413E+02  4.869942413E+02  0.000000000E+00  0.00000E+00  9.000E+00
      23     2     1     2     0     0  6.882692816E+00  5.736969870E-01 -1.850313518E+02  2.076456912E+02  9.398101589E+01  0.00000E+00  9.000E+00
      13     1     3     3     0     0 -3.107148910E+01  9.940564630E-01 -1.580450525E+02  1.610735092E+02  1.056583668E-01  0.00000E+00  9.000E+00
     -13     1     3     3     0     0  3.795418191E+01 -4.203594760E-01 -2.698629935E+01  4.657218207E+01  1.056583668E-01  0.00000E+00  9.000E+00
      -5     1     1     2     0   511 -6.882692816E+00 -5.736969870E-01 -2.906146914E+02  2.906967482E+02  0.000000000E+00  0.00000E+00  9.000E+00
#pdf  -5  5 0.17348862E-02 0.30124690E-01 0.93981016E+02 0.65017252E+00 0.85879683E-01
#rwgt            1           1   90.219266529841732         54217137    18408508           0
</event>
<event>
      6  10013  3.31628E+03  1.02765E+01 -1.00000E+00  1.94340E-01
      -1    -1     0     0     0   501  0.000000000E+00  0.000000000E+00  6.454465677E+00  6.454465677E+00  0.000000000E+00  0.00000E+00  9.000E+00
       1    -1     0     0   511     0  0.000000000E+00  0.000000000E+00 -5.586847665E+02  5.586847665E+02  0.000000000E+00  0.00000E+00  9.000E+00
      23     2     1     2     0     0 -9.429994491E+00  4.084325336E+00 -3.287493704E+02  3.414221502E+02  9.158236507E+01  0.00000E+00  9.000E+00
      13     1     3     3     0     0  3.614197574E+01 -1.657658612E+01 -1.083869622E+02  1.154502938E+02  1.056583668E-01  0.00000E+00  9.000E+00
     -13     1     3     3     0     0 -4.557197023E+01  2.066091146E+01 -2.203624082E+02  2.259718563E+02  1.056583668E-01  0.00000E+00  9.000E+00
      21     1     1     2   511   501  9.429994491E+00 -4.084325336E+00 -2.234809304E+02  2.237170820E+02  2.697398305E-06  0.00000E+00  9.000E+00
#pdf  -1  1 0.96874944E-03 0.51230140E-01 0.91582365E+02 0.14758288E+01 0.44198179E+00
#rwgt            1           5   966.88557683074987         54217137    18409016           0
</event>
<event>
      6  10013  3.31628E+03  4.21004E+00 -1.00000E+00  2.58237E-01
      -2    -1     0     0     0   501  0.000000000E+00  0.000000000E+00  1.656420585E+02  1.656420585E+02  0.000000000E+00  0.00000E+00  9.000E+00
       2    -1     0     0   511     0  0.000000000E+00  0.000000000E+00 -1.358481327E+01  1.358481327E+01  0.000000000E+00  0.00000E+00  9.000E+00
      23     2     1     2     0     0 -2.773693058E+00  3.167191894E+00  1.506870336E+02  1.747994619E+02  8.849036860E+01  0.00000E+00  9.000E+00
      13     1     3     3     0     0  3.584544204E+01 -1.245288579E+01  3.418902532E+01  5.107710539E+01  1.056583668E-01  0.00000E+00  9.000E+00
     -13     1     3     3     0     0 -3.861913509E+01  1.562007768E+01  1.164980082E+02  1.237223565E+02  1.056583668E-01  0.00000E+00  9.000E+00
      21     1     1     2   511   501  2.773693058E+00 -3.167191894E+00  1.370211664E+00  4.427409816E+00  4.470348358E-08  0.00000E+00  9.000E+00
#pdf  -2  2 0.25009135E-01 0.18527066E-02 0.88490369E+02 0.30644002E+00 0.12275492E+01
#rwgt            1           4   326.16768850785218         54217137    18409077           0
</event>
<event>
      6  10013  3.31628E+03  1.33213E+00 -1.00000E+00  4.88994E-01
      -1    -1     0     0     0   501  0.000000000E+00  0.000000000E+00  8.331449342E-01  8.331449342E-01  0.000000000E+00  0.00000E+00  9.000E+00
       1    -1     0     0   511     0  0.000000000E+00  0.000000000E+00 -3.021198333E+03  3.021198333E+03  0.000000000E+00  0.00000E+00  9.000E+00
      23     2     1     2     0     0  1.331046661E+00  5.368282219E-02 -2.223360843E+03  2.225026020E+03  8.605565134E+01  0.00000E+00  9.000E+00
      13     1     3     3     0     0 -2.562085808E+01  3.268079921E+01 -8.506857204E+02  8.516986962E+02  1.056583668E-01  0.00000E+00  9.000E+00
     -13     1     3     3     0     0  2.695190474E+01 -3.262711639E+01 -1.372675123E+03  1.373327324E+03  1.056583668E-01  0.00000E+00  9.000E+00
      21     1     1     2   511   501 -1.331046661E+00 -5.368282219E-02 -7.970043449E+02  7.970054582E+02  1.078959322E-05  0.00000E+00  9.000E+00
#pdf  -1  1 0.12807516E-03 0.34214261E+00 0.86055651E+02 0.30844922E+01 0.10072360E+00
#rwgt            1           5   522.24249877929367         54217137    18409267           0
</event>
<event>
      5  10013  3.31628E+03  8.94427E-01 -1.00000E+00  6.80324E-01
       1    -1     0     0   501     0  0.000000000E+00  0.000000000E+00  2.598188305E+03  2.598188305E+03  0.000000000E+00  0.00000E+00  9.000E+00
      -1    -1     0     0     0   501  0.000000000E+00  0.000000000E+00 -4.378514578E-02  4.378514578E-02  0.000000000E+00  0.00000E+00  9.000E+00
      23     2     1     2     0     0  0.000000000E+00  0.000000000E+00  2.598144519E+03  2.598232090E+03  2.133185915E+01  0.00000E+00  9.000E+00
      13     1     3     3     0     0  5.252750625E+00  1.112763773E+00  1.766469697E+02  1.767285849E+02  1.056583668E-01  0.00000E+00  9.000E+00
     -13     1     3     3     0     0 -5.252750625E+00 -1.112763773E+00  2.421497550E+03  2.421503505E+03  1.056583668E-01  0.00000E+00  9.000E+00
#pdf   1 -1 0.39972128E+00 0.67361763E-05 0.21331859E+02 0.85026834E-01 0.49617833E+01
#rwgt            1           6   1221.3505537295141         54217137    18409477           0
</event>
<event>
      6  10013  3.31628E+03  5.71849E+01 -1.00000E+00  1.35801E-01
      -4    -1     0     0     0   501  0.000000000E+00  0.000000000E+00  3.161245616E+01  3.161245616E+01  0.000000000E+00  0.00000E+00  9.000E+00
      21    -1     0     0   501   511  0.000000000E+00  0.000000000E+00 -1.184431839E+02  1.184431839E+02  0.000000000E+00  0.00000E+00  9.000E+00
      23     2     1     2     0     0 -5.563937721E+01  1.320514369E+01 -3.222212057E+01  7.098468401E+01  2.702673110E+01  0.00000E+00  9.000E+00
      13     1     3     3     0     0 -9.710220232E+00  1.421604766E+01 -7.087046322E+00  1.861778121E+01  1.056583668E-01  0.00000E+00  9.000E+00
     -13     1     3     3     0     0 -4.592915697E+01 -1.010903973E+00 -2.513507425E+01  5.236690280E+01  1.056583668E-01  0.00000E+00  9.000E+00
      -4     1     1     2     0   511  5.563937721E+01 -1.320514369E+01 -5.460860721E+01  7.907095609E+01  0.000000000E+00  0.00000E+00  9.000E+00
#pdf  -4  4 0.12740963E-02 0.33923300E-02 0.27026731E+02 0.78745066E+00 0.51412787E+00
#rwgt            1           2   414.07134621971085         54217137    18409678           0
</event>
<event>
      6  10013  3.31628E+03  5.02283E+00 -1.00000E+00  2.38083E-01
      21    -1     0     0   511   501  0.000000000E+00  0.000000000E+00  5.108220059E+00  5.108220059E+00  0.000000000E+00  0.00000E+00  9.000E+00
       2    -1     0     0   501     0  0.000000000E+00  0.000000000E+00 -4.162252293E+01  4.162252293E+01  0.000000000E+00  0.00000E+00  9.000E+00
      23     2     1     2     0     0 -2.476348495E-01  5.016719899E+00 -2.563816583E+01  3.475079480E+01  2.291447994E+01  0.00000E+00  9.000E+00
      13     1     3     3     0     0  2.301508082E+00  1.063249884E+01 -2.638277182E+01  2.853784827E+01  1.056583668E-01  0.00000E+00  9.000E+00
     -13     1     3     3     0     0 -2.549142931E+00 -5.615778943E+00  7.446059986E-01  6.212946531E+00  1.056583668E-01  0.00000E+00  9.000E+00
       2     1     1     2   511     0  2.476348495E-01 -5.016719899E+00 -1.087613705E+01  1.197994819E+01  0.000000000E+00  0.00000E+00  9.000E+00
#pdf  -2  2 0.68471481E-03 0.45375726E-02 0.22914480E+02 0.12523586E+01 0.78617270E+00
#rwgt            1           4   780.29412774479977         54217137    18409716           0
</event>
<event>
      6  10013  3.31628E+03  6.33499E+00 -1.00000E+00  2.21793E-01
      -1    -1     0     0     0   501  0.000000000E+00  0.000000000E+00  9.224351876E+02  9.224351876E+02  0.000000000E+00  0.00000E+00  9.000E+00
       1    -1     0     0   511     0  0.000000000E+00  0.000000000E+00 -3.668497745E+00  3.668497745E+00  0.000000000E+00  0.00000E+00  9.000E+00
      23     2     1     2     0     0  2.494390681E+00  5.823237093E+00  9.130167384E+02  9.175483352E+02  9.085841005E+01  0.00000E+00  9.000E+00
      13     1     3     3     0     0 -3.948517795E+01 -4.054707924E+00  2.500929971E+02  2.532232973E+02  1.056583668E-01  0.00000E+00  9.000E+00
     -13     1     3     3     0     0  4.197956863E+01  9.877945017E+00  6.629237413E+02  6.643250378E+02  1.056583668E-01  0.00000E+00  9.000E+00
      21     1     1     2   511   501 -2.494390681E+00 -5.823237093E+00  5.749951460E+00  8.555350192E+00  5.264139692E-07  0.00000E+00  9.000E+00
#pdf  -1  1 0.14047167E+00 0.34774014E-03 0.90858410E+02 0.72338530E-01 0.22007612E+01
#rwgt            1           5   244.74069715921829         54217137    18409866           0
</event>
<event>
      6  10013 -3.31628E+03  1.02621E+01 -1.00000E+00  1.94410E-01
      21    -1     0     0   501   511  0.000000000E+00  0.000000000E+00  1.037838112E+01  1.037838112E+01  0.000000000E+00  0.00000E+00  9.000E+00
      -4    -1     0     0     0   501  0.000000000E+00  0.000000000E+00 -5.499590527E+01  5.499590527E+01  0.000000000E+00  0.00000E+00  9.000E+00
      23     2     1     2     0     0 -6.106283074E+00 -8.247638808E+00 -4.916357897E+01  5.415034532E+01  2.024579369E+01  0.00000E+00  9.000E+00
      13     1     3     3     0     0  6.616140625E+00 -4.908563677E+00 -1.072995966E+01  1.352813780E+01  1.056583668E-01  0.00000E+00  9.000E+00
     -13     1     3     3     0     0 -1.272242370E+01 -3.339075131E+00 -3.843361930E+01  4.062220752E+01  1.056583668E-01  0.00000E+00  9.000E+00
      -4     1     1     2     0   511  6.106283074E+00  8.247638808E+00  4.546054814E+00  1.122394108E+01  0.000000000E+00  0.00000E+00  9.000E+00
#pdf   4 -4 0.34215393E-03 0.70886147E-02 0.20245794E+02 0.11614332E+01 0.32991877E+00
#rwgt            1           9  -1047.8231388765919         54217137    18409937           0
</event>
<event>
      6  10013  3.31628E+03  1.06311E+01 -1.00000E+00  1.92678E-01
       2    -1     0     0   501     0  0.000000000E+00  0.000000000E+00  1.862789600E+03  1.862789600E+03  0.000000000E+00  0.00000E+00  9.000E+00
      21    -1     0     0   511   501  0.000000000E+00  0.000000000E+00 -1.891639141E-01  1.891639141E-01  0.000000000E+00  0.00000E+00  9.000E+00
      23     2     1     2     0     0  6.724183501E+00 -8.234427015E+00  1.503323188E+03  1.503544262E+03  2.348869309E+01  0.00000E+00  9.000E+00
      13     1     3     3     0     0  8.489998885E+00  5.322289035E+00  9.473704376E+02  9.474234344E+02  1.056583668E-01  0.00000E+00  9.000E+00
     -13     1     3     3     0     0 -1.765815384E+00 -1.355671605E+01  5.559527506E+02  5.561208274E+02  1.056583668E-01  0.00000E+00  9.000E+00
       2     1     1     2   511     0 -6.724183501E+00  8.234427015E+00  3.592772476E+02  3.594345017E+02  0.000000000E+00  0.00000E+00  9.000E+00
#pdf   2 -2 0.21071923E+00 0.15492690E-04 0.23488693E+02 0.52941356E+00 0.40669895E+01
#rwgt            1           7   2834.7523732861769         54217137    18410012           0
</event>
<event>
      6  10013  3.31628E+03  5.95663E+00 -1.00000E+00  2.25883E-01
       2    -1     0     0   501     0  0.000000000E+00  0.000000000E+00  1.541395328E+02  1.541395328E+02  0.000000000E+00  0.00000E+00  9.000E+00
      -2    -1     0     0     0   511  0.000000000E+00  0.000000000E+00 -1.269444717E+01  1.269444717E+01  0.000000000E+00  0.00000E+00  9.000E+00
      23     2     1     2     0     0 -1.596039736E+00 -5.738821776E+00  1.385857614E+02  1.602266239E+02  8.019399200E+01  0.00000E+00  9.000E+00
      13     1     3     3     0     0  2.381808671E+01 -3.454905472E+01  7.465902462E+01  8.564414491E+01  1.056583668E-01  0.00000E+00  9.000E+00
     -13     1     3     3     0     0 -2.541412645E+01  2.881023295E+01  6.392673674E+01  7.458247904E+01  1.056583668E-01  0.00000E+00  9.000E+00
      21     1     1     2   501   511  1.596039736E+00  5.738821776E+00  2.859324259E+00  6.607356009E+00  7.300048300E-08  0.00000E+00  9.000E+00
#pdf   2 -2 0.22922421E-01 0.16601085E-02 0.80193992E+02 0.66633450E+00 0.11589547E+01
#rwgt            1           7   681.03733275416937         54217137    18410076           0
</event>
<event>
      6  10013  3.31628E+03  4.45509E+00 -1.00000E+00  2.52811E-01
      21    -1     0     0   501   511  0.000000000E+00  0.000000000E+00  4.653194801E+01  4.653194801E+01  0.000000000E+00  0.00000E+00  9.000E+00
      -2    -1     0     0     0   501  0.000000000E+00  0.000000000E+00 -2.026372213E+02  2.026372213E+02  0.000000000E+00  0.00000E+00  9.000E+00
      23     2     1     2     0     0  2.770503787E+00  3.488855729E+00 -1.923974550E+02  2.126045655E+02  9.035525879E+01  0.00000E+00  9.000E+00
      13     1     3     3     0     0 -1.530854474E+01  1.780875926E+01 -1.875787202E+02  1.890430927E+02  1.056583668E-01  0.00000E+00  9.000E+00
     -13     1     3     3     0     0  1.807904853E+01 -1.431990353E+01 -4.818734731E+00  2.356147281E+01  1.056583668E-01  0.00000E+00  9.000E+00
      -2     1     1     2     0   511 -2.770503787E+00 -3.488855729E+00  3.629218164E+01  3.656460384E+01  0.000000000E+00  0.00000E+00  9.000E+00
#pdf   2 -2 0.15525071E-02 0.31116201E-01 0.90355259E+02 0.13068356E+01 0.26397532E+00
#rwgt            1           7   324.01681908170377         54217137    18410159           0
</event>
<event>
      6  10013  3.31628E+03  4.58272E+01 -1.00000E+00  1.41240E-01
       1    -1     0     0   501     0  0.000000000E+00  0.000000000E+00  1.987485498E+02  1.987485498E+02  0.000000000E+00  0.00000E+00  9.000E+00
      21    -1     0     0   511   501  0.000000000E+00  0.000000000E+00 -3.694239485E+01  3.694239485E+01  0.000000000E+00  0.00000E+00  9.000E+00
      23     2     1     2     0     0  1.480256384E+01  4.337065651E+01  5.284993482E+01  1.174894741E+02  9.439560989E+01  0.00000E+00  9.000E+00
      13     1     3     3     0     0  1.358149479E+01 -2.179116175E+01  4.504620937E+01  5.185059183E+01  1.056583668E-01  0.00000E+00  9.000E+00
     -13     1     3     3     0     0  1.221069054E+00  6.516181826E+01  7.803725454E+00  6.563888225E+01  1.056583668E-01  0.00000E+00  9.000E+00
       1     1     1     2   511     0 -1.480256384E+01 -4.337065651E+01  1.089562201E+02  1.182014705E+02  0.000000000E+00  0.00000E+00  9.000E+00
#pdf   1 -1 0.11787369E-01 0.44730114E-02 0.94395610E+02 0.64428116E+00 0.78690989E+00
#rwgt            1           6   746.60527806726589         54217137    18410291           0
</event>
<event>
      6  10013  3.31628E+03  4.54652E+01 -1.00000E+00  1.41443E-01
      21    -1     0     0   501   511  0.000000000E+00  0.000000000E+00  1.391305705E+02  1.391305705E+02  0.000000000E+00  0.00000E+00  9.000E+00
      -4    -1     0     0     0   501  0.000000000E+00  0.000000000E+00 -5.469265071E+01  5.469265071E+01  0.000000000E+00  0.00000E+00  9.000E+00
      23     2     1     2     0     0  4.537646192E+01  2.839113754E+00 -3.337965540E+00  9.497136281E+01  8.331466784E+01  0.00000E+00  9.000E+00
      13     1     3     3     0     0 -4.951951705E+00  1.374455631E+01 -3.261254969E+01  3.573547558E+01  1.056583668E-01  0.00000E+00  9.000E+00
     -13     1     3     3     0     0  5.032841362E+01 -1.090544255E+01  2.927458415E+01  5.923588723E+01  1.056583668E-01  0.00000E+00  9.000E+00
      -4     1     1     2     0   511 -4.537646192E+01 -2.839113754E+00  8.777588528E+01  9.885185835E+01  0.000000000E+00  0.00000E+00  9.000E+00
#pdf   4 -4 0.61873922E-02 0.66381733E-02 0.83314668E+02 0.46579990E+00 0.44686760E+00
#rwgt            1           9   219.50742707549935         54217137    18410337           0
</event>
<event>
      6  10013  3.31628E+03  4.12771E+00 -1.00000E+00  2.60190E-01
      -2    -1     0     0     0   501  0.000000000E+00  0.000000000E+00  1.597595948E+01  1.597595948E+01  0.000000000E+00  0.00000E+00  9.000E+00
      21    -1     0     0   501   511  0.000000000E+00  0.000000000E+00 -2.729658850E+02  2.729658850E+02  0.000000000E+00  0.00000E+00  9.000E+00
      23     2     1     2     0     0 -2.384199688E+00 -3.369506558E+00 -1.102262206E+02  1.421201054E+02  8.961733465E+01  0.00000E+00  9.000E+00
      13     1     3     3     0     0 -1.361327948E+00  3.275008776E+00  1.565873704E+01  1.605571878E+01  1.056583668E-01  0.00000E+00  9.000E+00
     -13     1     3     3     0     0 -1.022871740E+00 -6.644515334E+00 -1.258849576E+02  1.260643866E+02  1.056583668E-01  0.00000E+00  9.000E+00
      -2     1     1     2     0   511  2.384199688E+00  3.369506558E+00 -1.467637050E+02  1.468217391E+02  0.000000000E+00  0.00000E+00  9.000E+00
#pdf  -2  2 0.24507775E-02 0.19390698E-01 0.89617335E+02 0.10013151E+01 0.68186385E+00
#rwgt            1           4   595.09038396353230         54217137    18410420           0
</event>
<event>
      6  10013  3.31628E+03  1.53187E+01 -1.00000E+00  1.76481E-01
       2    -1     0     0   501     0  0.000000000E+00  0.000000000E+00  1.208017782E+03  1.208017782E+03  0.000000000E+00  0.00000E+00  9.000E+00
      21    -1     0     0   511   501  0.000000000E+00  0.000000000E+00 -2.618382302E+00  2.618382302E+00  0.000000000E+00  0.00000E+00  9.000E+00
      23     2     1     2     0     0  1.312921534E+01 -7.892081778E+00  1.135803696E+03  1.139374511E+03  8.882330395E+01  0.00000E+00  9.000E+00
      13     1     3     3     0     0  3.649677900E+01 -1.455893006E+01  1.032646357E+03  1.033393675E+03  1.056583668E-01  0.00000E+00  9.000E+00
     -13     1     3     3     0     0 -2.336756366E+01  6.666848278E+00  1.031573387E+02  1.059808360E+02  1.056583668E-01  0.00000E+00  9.000E+00
       2     1     1     2   511     0 -1.312921534E+01  7.892081778E+00  6.959570330E+01  7.126165286E+01  0.000000000E+00  0.00000E+00  9.000E+00
#pdf   2 -2 0.17246763E+00 0.27068210E-03 0.88823304E+02 0.52807732E+00 0.23695429E+01
#rwgt            1           7   1780.7064849426249         54217137    18410603           0
</event>
<event>
      6  10013  3.31628E+03  2.76027E+00 -1.00000E+00  3.08142E-01
      -1    -1     0     0     0   501  0.000000000E+00  0.000000000E+00  4.601267447E-01  4.601267447E-01  0.000000000E+00  0.00000E+00  9.000E+00
      21    -1     0     0   501   511  0.000000000E+00  0.000000000E+00 -3.854557803E+02  3.854557803E+02  0.000000000E+00  0.00000E+00  9.000E+00
      23     2     1     2     0     0 -2.381087006E+00  1.396249972E+00 -2.794443805E+02  2.803285483E+02  2.207519180E+01  0.00000E+00  9.000E+00
      13     1     3     3     0     0 -9.867934654E+00 -6.122170044E+00 -1.396544281E+02  1.401364605E+02  1.056583668E-01  0.00000E+00  9.000E+00
     -13     1     3     3     0     0  7.486847648E+00  7.518420016E+00 -1.397899524E+02  1.401920878E+02  1.056583668E-01  0.00000E+00  9.000E+00
      -1     1     1     2     0   511  2.381087006E+00 -1.396249972E+00 -1.055512730E+02  1.055873587E+02  0.000000000E+00  0.00000E+00  9.000E+00
#pdf  -1  1 0.67487374E-04 0.42726738E-01 0.22075192E+02 0.25737376E+01 0.45723742E+00
#rwgt            1           5   412.21503057381307         54217137    18410682           0
</event>
<event>
      6  10013  3.31628E+03  1.86158E+01 -1.00000E+00  1.68938E-01
      21    -1     0     0   511   501  0.000000000E+00  0.000000000E+00  2.710740320E+01  2.710740320E+01  0.000000000E+00  0.00000E+00  9.000E+00
       1    -1     0     0   501     0  0.000000000E+00  0.000000000E+00 -1.203648775E+02  1.203648775E+02  0.000000000E+00  0.00000E+00  9.000E+00
      23     2     1     2     0     0 -1.535895371E+01  1.051911674E+01 -6.877566559E+01  1.167166595E+02  9.244531982E+01  0.00000E+00  9.000E+00
      13     1     3     3     0     0 -2.205907702E+01 -2.906732585E+01  6.744619364E-01  3.649627891E+01  1.056583668E-01  0.00000E+00  9.000E+00
     -13     1     3     3     0     0  6.700123310E+00  3.958644259E+01 -6.945012753E+01  8.022038062E+01  1.056583668E-01  0.00000E+00  9.000E+00
       1     1     1     2   511     0  1.535895371E+01 -1.051911674E+01 -2.448180875E+01  3.075562121E+01  0.000000000E+00  0.00000E+00  9.000E+00
#pdf  -1  1 0.36151983E-02 0.13987852E-01 0.92445320E+02 0.86162927E+00 0.61229708E+00
#rwgt            1           5   513.05838375573410         54217137    18410809           0
</event>
<event>
      6  10013  3.31628E+03  1.61859E+00 -1.00000E+00  4.11931E-01
       1    -1     0     0   511     0  0.000000000E+00  0.000000000E+00  1.566607662E+03  1.566607662E+03  0.000000000E+00  0.00000E+00  9.000E+00
      -1    -1     0     0     0   501  0.000000000E+00  0.000000000E+00 -1.096756130E+00  1.096756130E+00  0.000000000E+00  0.00000E+00  9.000E+00
      23     2     1     2     0     0  1.615265726E+00  1.037450868E-01  3.326111280E+02  3.348035777E+02  3.821849530E+01  0.00000E+00  9.000E+00
      13     1     3     3     0     0  1.474480330E+01 -7.431860230E+00  2.651967321E+02  2.657102927E+02  1.056583668E-01  0.00000E+00  9.000E+00
     -13     1     3     3     0     0 -1.312953758E+01  7.535605317E+00  6.741439583E+01  6.909328501E+01  1.056583668E-01  0.00000E+00  9.000E+00
      21     1     1     2   511   501 -1.615265726E+00 -1.037450868E-01  1.232899778E+03  1.232900840E+03  1.525878906E-05  0.00000E+00  9.000E+00
#pdf   1 -1 0.51293613E-01 0.16849894E-03 0.38218495E+02 0.44375692E+00 0.22896356E+01
#rwgt            1           6   214.98607095531480         54217137    18410889           0
</event>
<event>
      6  10013  3.31628E+03  4.59162E+00 -1.00000E+00  2.50013E-01
       4    -1     0     0   511     0  0.000000000E+00  0.000000000E+00  2.196947731E+00  2.196947731E+00  0.000000000E+00  0.00000E+00  9.000E+00
      -4    -1     0     0     0   501  0.000000000E+00  0.000000000E+00 -9.476655581E+01  9.476655581E+01  0.000000000E+00  0.00000E+00  9.000E+00
      23     2     1     2     0     0 -2.553099927E+00 -3.816361175E+00 -8.769142904E+01  9.026428250E+01  2.089906783E+01  0.00000E+00  9.000E+00
      13     1     3     3     0     0 -2.047708188E+00 -2.872539275E+00 -8.871153859E+01  8.878171453E+01  1.056583668E-01  0.00000E+00  9.000E+00
     -13     1     3     3     0     0 -5.053917393E-01 -9.438218998E-01  1.020109557E+00  1.482567971E+00  1.056583668E-01  0.00000E+00  9.000E+00
      21     1     1     2   511   501  2.553099927E+00  3.816361175E+00 -4.878179046E+00  6.699221049E+00  5.960464478E-08  0.00000E+00  9.000E+00
#pdf   4 -4 0.19330146E-03 0.13370018E-01 0.20899068E+02 0.14267986E+01 0.22802953E+00
#rwgt            1           9   329.98790071567714         54217137    18411043           0
</event>
<event>
      6  10013  3.31628E+03  1.42608E+00 -1.00000E+00  4.62248E-01
      -1    -1     0     0     0   501  0.000000000E+00  0.000000000E+00  2.179152504E+00  2.179152504E+00  0.000000000E+00  0.00000E+00  9.000E+00
       1    -1     0     0   511     0  0.000000000E+00  0.000000000E+00 -1.041350678E+03  1.041350678E+03  0.000000000E+00  0.00000E+00  9.000E+00
      23     2     1     2     0     0 -4.907094550E-01  1.338997724E+00 -1.008169300E+03  1.012494823E+03  9.347938406E+01  0.00000E+00  9.000E+00
      13     1     3     3     0     0  2.346839525E+01 -3.509813884E+01 -2.965490746E+02  2.995396630E+02  1.056583668E-01  0.00000E+00  9.000E+00
     -13     1     3     3     0     0 -2.395910471E+01  3.643713656E+01 -7.116202251E+02  7.129551596E+02  1.056583668E-01  0.00000E+00  9.000E+00
      21     1     1     2   511   501  4.907094550E-01 -1.338997724E+00 -3.100222587E+01  3.103500797E+01  3.371747881E-07  0.00000E+00  9.000E+00
#pdf  -1  1 0.33269382E-03 0.15541762E+00 0.93479384E+02 0.22238422E+01 0.28533698E+00
#rwgt            1           5   864.46220836094199         54217137    18411154           0
</event>
<event>
      6  10013  3.31628E+03  2.26772E+00 -1.00000E+00  3.39206E-01
       2    -1     0     0   511     0  0.000000000E+00  0.000000000E+00  1.862338350E+02  1.862338350E+02  0.000000000E+00  0.00000E+00  9.000E+00
      -2    -1     0     0     0   501  0.000000000E+00  0.000000000E+00 -9.507600078E-01  9.507600078E-01  0.000000000E+00  0.00000E+00  9.000E+00
      23     2     1     2     0     0 -2.214604188E+00  4.879372314E-01  1.532909525E+02  1.551122010E+02  2.359102018E+01  0.00000E+00  9.000E+00
      13     1     3     3     0     0 -9.698731168E+00 -2.288301665E+00  3.103253980E+01  3.259342574E+01  1.056583668E-01  0.00000E+00  9.000E+00
     -13     1     3     3     0     0  7.484126980E+00  2.776238896E+00  1.222584127E+02  1.225187753E+02  1.056583668E-01  0.00000E+00  9.000E+00
      21     1     1     2   511   501  2.214604188E+00 -4.879372314E-01  3.199212247E+01  3.207239396E+01  4.768371582E-07  0.00000E+00  9.000E+00
#pdf   2 -2 0.23614468E-01 0.13945323E-03 0.23591020E+02 0.63111609E+00 0.21048198E+01
#rwgt            1           7   1363.9576548049963         54217137    18411359           0
</event>
<event>
      6  10013  3.31628E+03  8.95176E+00 -1.00000E+00  2.01424E-01
      -1    -1     0     0     0   511  0.000000000E+00  0.000000000E+00  5.410422031E+00  5.410422031E+00  0.000000000E+00  0.00000E+00  9.000E+00
       1    -1     0     0   501     0  0.000000000E+00  0.000000000E+00 -5.137582241E+02  5.137582241E+02  0.000000000E+00  0.00000E+00  9.000E+00
      23     2     1     2     0     0 -8.068858591E+00 -3.876525646E+00 -4.956570471E+02  5.036383792E+02  8.885704644E+01  0.00000E+00  9.000E+00
      13     1     3     3     0     0 -3.156565609E+01 -3.050133054E+01 -1.537757667E+02  1.599178520E+02  1.056583668E-01  0.00000E+00  9.000E+00
     -13     1     3     3     0     0  2.349679749E+01  2.662480490E+01 -3.418812804E+02  3.437205271E+02  1.056583668E-01  0.00000E+00  9.000E+00
      21     1     1     2   501   511  8.068858591E+00  3.876525646E+00 -1.269075494E+01  1.553026693E+01  3.769728732E-07  0.00000E+00  9.000E+00
#pdf  -1  1 0.61085659E-03 0.76481744E-01 0.88857046E+02 0.17538281E+01 0.39692013E+00
#rwgt            1           5   1005.7116257450963         54217137    18411450           0
</event>
<event>
      6  10013  3.31628E+03  1.63191E+01 -1.00000E+00  1.73958E-01
       3    -1     0     0   501     0  0.000000000E+00  0.000000000E+00  7.811820634E+01  7.811820634E+01  0.000000000E+00  0.00000E+00  9.000E+00
      21    -1     0     0   511   501  0.000000000E+00  0.000000000E+00 -4.034664986E+01  4.034664986E+01  0.000000000E+00  0.00000E+00  9.000E+00
      23     2     1     2     0     0 -1.222443473E+01 -1.081090636E+01  3.934573216E+01  1.020700238E+02  9.275715938E+01  0.00000E+00  9.000E+00
      13     1     3     3     0     0 -3.340295819E+00 -4.953053697E+01  5.622620989E+00  4.996055143E+01  1.056583668E-01  0.00000E+00  9.000E+00
     -13     1     3     3     0     0 -8.884138910E+00  3.871963061E+01  3.372311117E+01  5.210947236E+01  1.056583668E-01  0.00000E+00  9.000E+00
       3     1     1     2   511     0  1.222443473E+01  1.081090636E+01 -1.574175687E+00  1.639483241E+01  0.000000000E+00  0.00000E+00  9.000E+00
#pdf   3 -3 0.10713592E-01 0.47519632E-02 0.92757159E+02 0.47114881E+00 0.71740034E+00
#rwgt            1           8   343.25978677458767         54217137    18411535           0
</event>
<event>
      6  10013 -3.31628E+03  1.35734E+01 -1.00000E+00  1.81523E-01
      21    -1     0     0   501   511  0.000000000E+00  0.000000000E+00  2.417811034E+02  2.417811034E+02  0.000000000E+00  0.00000E+00  9.000E+00
      -5    -1     0     0     0   501  0.000000000E+00  0.000000000E+00 -4.558595374E+00  4.558595374E+00  0.000000000E+00  0.00000E+00  9.000E+00
      23     2     1     2     0     0  1.334342574E+01  2.488067392E+00  7.292547314E+01  8.148293318E+01  3.372100647E+01  0.00000E+00  9.000E+00
      13     1     3     3     0     0  5.506262163E+00 -1.528714340E+01  2.555030494E+01  3.027944720E+01  1.056583668E-01  0.00000E+00  9.000E+00
     -13     1     3     3     0     0  7.837163574E+00  1.777521079E+01  4.737516820E+01  5.120348598E+01  1.056583668E-01  0.00000E+00  9.000E+00
      -5     1     1     2     0   511 -1.334342574E+01 -2.488067392E+00  1.642970348E+02  1.648567655E+02  0.000000000E+00  0.00000E+00  9.000E+00
#pdf   5 -5 0.11018442E-01 0.61065251E-03 0.33721006E+02 0.15419967E+00 0.73511104E+00
#rwgt            1          10  -180.36820695052762         54217137    18411624           0
</event>
<event>
      6  10013  3.31628E+03  2.92984E+01 -1.00000E+00  1.53722E-01
      21    -1     0     0   511   501  0.000000000E+00  0.000000000E+00  7.309271570E+00  7.309271570E+00  0.000000000E+00  0.00000E+00  9.000E+00
       2    -1     0     0   501     0  0.000000000E+00  0.000000000E+00 -6.592895896E+02  6.592895896E+02  0.000000000E+00  0.00000E+00  9.000E+00
      23     2     1     2     0     0 -7.458624523E+00 -2.833311039E+01 -6.017927994E+02  6.084853236E+02  8.509652981E+01  0.00000E+00  9.000E+00
      13     1     3     3     0     0 -4.133404072E+01 -2.832821631E+00 -4.085552421E+02  4.106506116E+02  1.056583668E-01  0.00000E+00  9.000E+00
     -13     1     3     3     0     0  3.387541620E+01 -2.550028876E+01 -1.932375574E+02  1.978347120E+02  1.056583668E-01  0.00000E+00  9.000E+00
       2     1     1     2   511     0  7.458624523E+00  2.833311039E+01 -5.018751861E+01  5.811353756E+01  0.000000000E+00  0.00000E+00  9.000E+00
#pdf  -2  2 0.48676672E-03 0.88027043E-01 0.85096530E+02 0.18892390E+01 0.61177493E+00
#rwgt            1           4   1087.9072579673552         54217137    18411844           0
</event>
<event>
      6  10013  3.31628E+03  1.51768E+01 -1.00000E+00  1.76858E-01
      -1    -1     0     0     0   501  0.000000000E+00  0.000000000E+00  4.075632486E+02  4.075632486E+02  0.000000000E+00  0.00000E+00  9.000E+00
      21    -1     0     0   501   511  0.000000000E+00  0.000000000E+00 -5.929964136E+01  5.929964136E+01  0.000000000E+00  0.00000E+00  9.000E+00
      23     2     1     2     0     0 -3.764512182E+00  1.470247755E+01  4.013078240E+02  4.116902216E+02  9.061200019E+01  0.00000E+00  9.000E+00
      13     1     3     3     0     0 -2.628620313E+01  1.738724723E+01  4.659438957E+01  5.625237012E+01  1.056583668E-01  0.00000E+00  9.000E+00
     -13     1     3     3     0     0  2.252169095E+01 -2.684769681E+00  3.547134345E+02  3.554378515E+02  1.056583668E-01  0.00000E+00  9.000E+00
      -1     1     1     2     0   511  3.764512182E+00 -1.470247755E+01 -5.304421677E+01  5.517266833E+01  0.000000000E+00  0.00000E+00  9.000E+00
#pdf  -1  1 0.61679137E-01 0.78767388E-03 0.90612000E+02 0.18211413E+00 0.16357707E+01
#rwgt            1           5   461.45881471126717         54217137    18411894           0
</event>
<event>
      6  10013  3.31628E+03  2.88456E+01 -1.00000E+00  1.54197E-01
      21    -1     0     0   511   501  0.000000000E+00  0.000000000E+00  4.705865379E+02  4.705865379E+02  0.000000000E+00  0.00000E+00  9.000E+00
       5    -1     0     0   501     0  0.000000000E+00  0.000000000E+00 -1.689014568E+01  1.689014568E+01  0.000000000E+00  0.00000E+00  9.000E+00
      23     2     1     2     0     0  3.099665875E+00  2.867854267E+01  1.324892743E+02  1.649769482E+02  9.397828942E+01  0.00000E+00  9.000E+00
      13     1     3     3     0     0 -1.455224894E+01 -9.319136678E+00 -7.510418740E+00  1.884228784E+01  1.056583668E-01  0.00000E+00  9.000E+00
     -13     1     3     3     0     0  1.765191481E+01  3.799767935E+01  1.399996931E+02  1.461346603E+02  1.056583668E-01  0.00000E+00  9.000E+00
       5     1     1     2   511     0 -3.099665875E+00 -2.867854267E+01  3.212071179E+02  3.224997353E+02  0.000000000E+00  0.00000E+00  9.000E+00
#pdf  -5  5 0.21874781E-01 0.23890468E-02 0.93978289E+02 0.11714271E+00 0.54735703E+00
#rwgt            1           1   102.28828149585703         54217137    18411965           0
</event>
<event>
      5  10013 -3.31628E+03  8.94427E-01 -1.00000E+00  6.77740E-01
       3    -1     0     0   501     0  0.000000000E+00  0.000000000E+00  2.742038906E+00  2.742038906E+00  0.000000000E+00  0.00000E+00  9.000E+00
      -3    -1     0     0     0   501  0.000000000E+00  0.000000000E+00 -3.798446652E+01  3.798446652E+01  0.000000000E+00  0.00000E+00  9.000E+00
      23     2     1     2     0     0  0.000000000E+00  0.000000000E+00 -3.524242761E+01  4.072650542E+01  2.041126013E+01  0.00000E+00  9.000E+00
      13     1     3     3     0     0 -8.421775154E+00 -7.108298689E-02 -2.912013968E+01  3.031377654E+01  1.056583668E-01  0.00000E+00  9.000E+00
     -13     1     3     3     0     0  8.421775154E+00  7.108298689E-02 -6.122287927E+00  1.041272888E+01  1.056583668E-01  0.00000E+00  9.000E+00
#pdf   3 -3 0.42185214E-03 0.58437641E-02 0.20411260E+02 0.13711828E+01 0.53327739E+00
#rwgt            1           8  -389.91578018386122         54217137    18412112           0
</event>
<event>
      6  10013  3.31628E+03  1.03143E+01 -1.00000E+00  1.94159E-01
      21    -1     0     0   511   501  0.000000000E+00  0.000000000E+00  4.786422570E+01  4.786422570E+01  0.000000000E+00  0.00000E+00  9.000E+00
       4    -1     0     0   501     0  0.000000000E+00  0.000000000E+00 -1.066271069E+02  1.066271069E+02  0.000000000E+00  0.00000E+00  9.000E+00
      23     2     1     2     0     0  8.654886043E+00  5.610480784E+00 -9.889428595E+01  1.130556692E+02  5.380631941E+01  0.00000E+00  9.000E+00
      13     1     3     3     0     0 -1.525588068E+01  7.689059262E+00 -8.186057721E+01  8.362433134E+01  1.056583668E-01  0.00000E+00  9.000E+00
     -13     1     3     3     0     0  2.391076672E+01 -2.078578477E+00 -1.703370874E+01  2.943133790E+01  1.056583668E-01  0.00000E+00  9.000E+00
       4     1     1     2   511     0 -8.654886043E+00 -5.610480784E+00  4.013140477E+01  4.143566334E+01  0.000000000E+00  0.00000E+00  9.000E+00
#pdf  -4  4 0.10698579E-02 0.16012301E-01 0.53806319E+02 0.10178063E+01 0.23522203E+00
#rwgt            1           2   159.10592441145226         54217137    18412309           0
</event>
<event>
      6  10013  3.31628E+03  4.62984E+00 -1.00000E+00  2.49256E-01
       4    -1     0     0   501     0  0.000000000E+00  0.000000000E+00  7.351718256E+01  7.351718256E+01  0.000000000E+00  0.00000E+00  9.000E+00
      21    -1     0     0   511   501  0.000000000E+00  0.000000000E+00 -2.538646380E+00  2.538646380E+00  0.000000000E+00  0.00000E+00  9.000E+00
      23     2     1     2     0     0  3.206537952E+00  3.339695347E+00  5.061655901E+01  5.517412487E+01  2.146421576E+01  0.00000E+00  9.000E+00
      13     1     3     3     0     0  4.835385343E-01  7.888354132E+00  5.227006619E+00  9.475901134E+00  1.056583668E-01  0.00000E+00  9.000E+00
     -13     1     3     3     0     0  2.722999418E+00 -4.548658785E+00  4.538955239E+01  4.569822373E+01  1.056583668E-01  0.00000E+00  9.000E+00
       4     1     1     2   511     0 -3.206537952E+00 -3.339695347E+00  2.036197717E+01  2.088170407E+01  0.000000000E+00  0.00000E+00  9.000E+00
#pdf   4 -4 0.79547935E-02 0.34270026E-03 0.21464216E+02 0.31407203E+00 0.11878161E+01
#rwgt            1           9   381.78096436236092         54217137    18412399           0
</event>
<event>
      6  10013  3.31628E+03  7.48603E+00 -1.00000E+00  2.11445E-01
       2    -1     0     0   501     0  0.000000000E+00  0.000000000E+00  9.523330626E+02  9.523330626E+02  0.000000000E+00  0.00000E+00  9.000E+00
      21    -1     0     0   511   501  0.000000000E+00  0.000000000E+00 -3.115197789E-01  3.115197789E-01  0.000000000E+00  0.00000E+00  9.000E+00
      23     2     1     2     0     0  5.383925836E+00  5.201350357E+00  8.294567049E+02  8.298513407E+02  2.447001604E+01  0.00000E+00  9.000E+00
      13     1     3     3     0     0 -1.450130741E+00  9.812964678E+00  1.423798486E+02  1.427250140E+02  1.056583668E-01  0.00000E+00  9.000E+00
     -13     1     3     3     0     0  6.834056577E+00 -4.611614321E+00  6.870768563E+02  6.871263268E+02  1.056583668E-01  0.00000E+00  9.000E+00
       2     1     1     2   511     0 -5.383925836E+00 -5.201350357E+00  1.225648379E+02  1.227932417E+02  0.000000000E+00  0.00000E+00  9.000E+00
#pdf   2 -2 0.12205516E+00 0.29028570E-04 0.24470016E+02 0.61333979E+00 0.34351876E+01
#rwgt            1           7   3045.9902251639473         54217137    18412481           0
</event>
<event>
      6  10013  3.31628E+03  4.88568E+00 -1.00000E+00  2.44458E-01
       2    -1     0     0   501     0  0.000000000E+00  0.000000000E+00  4.504785770E+02  4.504785770E+02  0.000000000E+00  0.00000E+00  9.000E+00
      21    -1     0     0   511   501  0.000000000E+00  0.000000000E+00 -7.861148227E-01  7.861148227E-01  0.000000000E+00  0.00000E+00  9.000E+00
      23     2     1     2     0     0 -3.971340937E+00 -2.845758423E+00  4.139120603E+02  4.151522694E+02  3.169137568E+01  0.00000E+00  9.000E+00
      13     1     3     3     0     0 -4.706714445E+00  6.147791599E+00  2.583932302E+01  2.697462289E+01  1.056583668E-01  0.00000E+00  9.000E+00
     -13     1     3     3     0     0  7.353735083E-01 -8.993550022E+00  3.880727373E+02  3.881776465E+02  1.056583668E-01  0.00000E+00  9.000E+00
       2     1     1     2   511     0  3.971340937E+00  2.845758423E+00  3.578040187E+01  3.611242235E+01  0.000000000E+00  0.00000E+00  9.000E+00
#pdf   2 -2 0.63029576E-01 0.94286843E-04 0.31691376E+02 0.62824561E+00 0.26123793E+01
#rwgt            1           7   2397.6274852612814         54217137    18412541           0
</event>
<event>
      6  10013  3.31628E+03  4.51641E+01 -1.00000E+00  1.41614E-01
       1    -1     0     0   501     0  0.000000000E+00  0.000000000E+00  7.919978133E+02  7.919978133E+02  0.000000000E+00  0.00000E+00  9.000E+00
      21    -1     0     0   511   501  0.000000000E+00  0.000000000E+00 -7.007542028E+00  7.007542028E+00  0.000000000E+00  0.00000E+00  9.000E+00
      23     2     1     2     0     0 -4.155692599E+01  1.768662833E+01  4.854646940E+02  4.960938727E+02  9.161531753E+01  0.00000E+00  9.000E+00
      13     1     3     3     0     0 -5.363362984E+01 -2.115177500E+00  1.413457890E+02  1.511941913E+02  1.056583668E-01  0.00000E+00  9.000E+00
     -13     1     3     3     0     0  1.207670384E+01  1.980180583E+01  3.441189050E+02  3.448996814E+02  1.056583668E-01  0.00000E+00  9.000E+00
       1     1     1     2   511     0  4.155692599E+01 -1.768662833E+01  2.995255772E+02  3.029114826E+02  0.000000000E+00  0.00000E+00  9.000E+00
#pdf   1 -1 0.67722502E-01 0.73335876E-03 0.91615318E+02 0.41101666E+00 0.16441754E+01
#rwgt            1           6   785.11386752100373         54217137    18412744           0
</event>
<event>
      6  10013  3.31628E+03  1.55140E+01 -1.00000E+00  1.75969E-01
      21    -1     0     0   511   501  0.000000000E+00  0.000000000E+00  7.026118310E+00  7.026118310E+00  0.000000000E+00  0.00000E+00  9.000E+00
       2    -1     0     0   501     0  0.000000000E+00  0.000000000E+00 -1.069764437E+02  1.069764437E+02  0.000000000E+00  0.00000E+00  9.000E+00
      23     2     1     2     0     0  1.111704471E+01  1.082099817E+01 -7.340812821E+01  8.325892990E+01  3.609173639E+01  0.00000E+00  9.000E+00
      13     1     3     3     0     0  3.189597602E+00  5.561976419E+00  2.406871632E+00  6.849329112E+00  1.056583668E-01  0.00000E+00  9.000E+00
     -13     1     3     3     0     0  7.927447110E+00  5.259021748E+00 -7.581499985E+01  7.640960079E+01  1.056583668E-01  0.00000E+00  9.000E+00
       2     1     1     2   511     0 -1.111704471E+01 -1.082099817E+01 -2.654219720E+01  3.074363213E+01  0.000000000E+00  0.00000E+00  9.000E+00
#pdf  -2  2 0.69616369E-03 0.11071781E-01 0.36091736E+02 0.13890405E+01 0.69964142E+00
#rwgt            1           4   1299.4639086984071         54217137    18412786           0
</event>
<event>
      6  10013  3.31628E+03  4.47896E+00 -1.00000E+00  2.52311E-01
      -2    -1     0     0     0   511  0.000000000E+00  0.000000000E+00  9.818043996E+00  9.818043996E+00  0.000000000E+00  0.00000E+00  9.000E+00
       2    -1     0     0   501     0  0.000000000E+00  0.000000000E+00 -2.448230281E+02  2.448230281E+02  0.000000000E+00  0.00000E+00  9.000E+00
      23     2     1     2     0     0  1.439189511E+00 -4.241439119E+00 -2.315025877E+02  2.489553133E+02  9.146167973E+01  0.00000E+00  9.000E+00
      13     1     3     3     0     0  2.548468459E+01 -9.711370795E+00 -2.201059745E+02  2.217891590E+02  1.056583668E-01  0.00000E+00  9.000E+00
     -13     1     3     3     0     0 -2.404549508E+01  5.469931676E+00 -1.139661318E+01  2.716615434E+01  1.056583668E-01  0.00000E+00  9.000E+00
      21     1     1     2   501   511 -1.439189511E+00  4.241439119E+00 -3.502396473E+00  5.685758815E+00  1.192092896E-07  0.00000E+00  9.000E+00
#pdf  -2  2 0.13409105E-02 0.36914064E-01 0.91461680E+02 0.12890714E+01 0.64350208E+00
#rwgt            1           4   1177.4180746408322         54217137    18412827           0
</event>
<event>
      6  10013  3.31628E+03  6.75589E+00 -1.00000E+00  2.17683E-01
      -1    -1     0     0     0   501  0.000000000E+00  0.000000000E+00  2.407838056E-01  2.407838056E-01  0.000000000E+00  0.00000E+00  9.000E+00
       1    -1     0     0   511     0  0.000000000E+00  0.000000000E+00 -1.717989967E+03  1.717989967E+03  0.000000000E+00  0.00000E+00  9.000E+00
      23     2     1     2     0     0 -6.755615304E+00 -6.110226331E-02 -1.389550550E+03  1.389962591E+03  3.316067890E+01  0.00000E+00  9.000E+00
      13     1     3     3     0     0  2.940344190E+00 -1.400387232E+01 -3.802280684E+02  3.804972394E+02  1.056583668E-01  0.00000E+00  9.000E+00
     -13     1     3     3     0     0 -9.695959494E+00  1.394277005E+01 -1.009322482E+03  1.009465352E+03  1.056583668E-01  0.00000E+00  9.000E+00
      21     1     1     2   511   501  6.755615304E+00  6.110226331E-02 -3.281986333E+02  3.282681602E+02  3.814697266E-06  0.00000E+00  9.000E+00
#pdf  -1  1 0.31057449E-04 0.20950497E+00 0.33160679E+02 0.37535388E+01 0.24239341E+00
#rwgt            1           5   473.50948641751631         54217137    18413038           0
</event>
<event>
      6  10013  3.31628E+03  6.40975E+00 -1.00000E+00  2.21031E-01
      21    -1     0     0   511   501  0.000000000E+00  0.000000000E+00  6.104582615E-01  6.104582615E-01  0.000000000E+00  0.00000E+00  9.000E+00
       2    -1     0     0   501     0  0.000000000E+00  0.000000000E+00 -8.684850572E+02  8.684850572E+02  0.000000000E+00  0.00000E+00  9.000E+00
      23     2     1     2     0     0  4.821252135E+00  4.223796341E+00 -8.447214435E+02  8.450714955E+02  2.346125517E+01  0.00000E+00  9.000E+00
      13     1     3     3     0     0  5.660296237E+00  6.593926521E+00 -1.090540569E+02  1.093998049E+02  1.056583668E-01  0.00000E+00  9.000E+00
     -13     1     3     3     0     0 -8.390441022E-01 -2.370130181E+00 -7.356673866E+02  7.356716906E+02  1.056583668E-01  0.00000E+00  9.000E+00
       2     1     1     2   511     0 -4.821252135E+00 -4.223796341E+00 -2.315315544E+01  2.402401995E+01  0.000000000E+00  0.00000E+00  9.000E+00
#pdf  -2  2 0.25975112E-04 0.12538868E+00 0.23461255E+02 0.34942321E+01 0.61240404E+00
#rwgt            1           4   2676.5272356874616         54217137    18413082           0
</event>
<event>
      6  10013  3.31628E+03  1.70772E+00 -1.00000E+00  3.98187E-01
       2    -1     0     0   501     0  0.000000000E+00  0.000000000E+00  2.961344593E+00  2.961344593E+00  0.000000000E+00  0.00000E+00  9.000E+00
      -2    -1     0     0     0   511  0.000000000E+00  0.000000000E+00 -6.308931301E+01  6.308931301E+01  0.000000000E+00  0.00000E+00  9.000E+00
      23     2     1     2     0     0  1.638272743E+00  4.820526598E-01 -4.068102631E+01  4.652887824E+01  2.251831024E+01  0.00000E+00  9.000E+00
      13     1     3     3     0     0  1.984813696E+00  5.764677740E+00 -6.309326056E-01  6.130271976E+00  1.056583668E-01  0.00000E+00  9.000E+00
     -13     1     3     3     0     0 -3.465409532E-01 -5.282625080E+00 -4.005009371E+01  4.039860626E+01  1.056583668E-01  0.00000E+00  9.000E+00
      21     1     1     2   501   511 -1.638272743E+00 -4.820526598E-01 -1.944694210E+01  1.952177937E+01  3.371747881E-07  0.00000E+00  9.000E+00
#pdf   2 -2 0.44854676E-03 0.66892460E-02 0.22518310E+02 0.14733287E+01 0.54432912E+00
#rwgt            1           7   543.17859982297750         54217137    18413148           0
</event>
<event>
      6  10013  3.31628E+03  1.33663E+01 -1.00000E+00  1.82185E-01
      21    -1     0     0   511   501  0.000000000E+00  0.000000000E+00  7.844618444E+00  7.844618444E+00  0.000000000E+00  0.00000E+00  9.000E+00
       1    -1     0     0   501     0  0.000000000E+00  0.000000000E+00 -8.947382598E+02  8.947382598E+02  0.000000000E+00  0.00000E+00  9.000E+00
      23     2     1     2     0     0 -9.753480449E+00  9.139373605E+00 -8.839943491E+02  8.889057285E+02  9.235110384E+01  0.00000E+00  9.000E+00
      13     1     3     3     0     0  2.466937980E+01  7.638398648E+00 -7.777627626E+01  8.195171595E+01  1.056583668E-01  0.00000E+00  9.000E+00
     -13     1     3     3     0     0 -3.442286025E+01  1.500974957E+00 -8.062180728E+02  8.069540125E+02  1.056583668E-01  0.00000E+00  9.000E+00
       1     1     1     2   511     0  9.753480449E+00 -9.139373605E+00 -2.899292307E+00  1.367714980E+01  0.000000000E+00  0.00000E+00  9.000E+00
#pdf  -1  1 0.37390248E-03 0.13497058E+00 0.92351104E+02 0.21245656E+01 0.31246583E+00
#rwgt            1           5   803.33978618605056         54217137    18413276           0
</event>
<event>
      6  10013  3.31628E+03  3.35364E+01 -1.00000E+00  1.49719E-01
      -2    -1     0     0     0   501  0.000000000E+00  0.000000000E+00  1.595394434E+01  1.595394434E+01  0.000000000E+00  0.00000E+00  9.000E+00
      21    -1     0     0   501   511  0.000000000E+00  0.000000000E+00 -1.219686797E+02  1.219686797E+02  0.000000000E+00  0.00000E+00  9.000E+00
      23     2     1     2     0     0 -2.918557765E+01  1.651954459E+01 -4.602698885E+01  6.919691540E+01  3.930694726E+01  0.00000E+00  9.000E+00
      13     1     3     3     0     0 -9.884129339E+00 -6.267654992E+00  2.732569456E+00  1.201905202E+01  1.056583668E-01  0.00000E+00  9.000E+00
     -13     1     3     3     0     0 -1.930144831E+01  2.278719958E+01 -4.875955831E+01  5.717786339E+01  1.056583668E-01  0.00000E+00  9.000E+00
      -2     1     1     2     0   511  2.918557765E+01 -1.651954459E+01 -5.998774646E+01  6.872570860E+01  0.000000000E+00  0.00000E+00  9.000E+00
#pdf  -2  2 0.13558667E-02 0.67427169E-02 0.39306947E+02 0.11112139E+01 0.77279359E+00
#rwgt            1           4   962.72147278355112         54217137    18413344           0
</event>
<event>
      6  10013  3.31628E+03  1.93439E+00 -1.00000E+00  3.69745E-01
      -4    -1     0     0     0   501  0.000000000E+00  0.000000000E+00  1.676644281E+01  1.676644281E+01  0.000000000E+00  0.00000E+00  9.000E+00
      21    -1     0     0   501   511  0.000000000E+00  0.000000000E+00 -1.970074156E+01  1.970074156E+01  0.000000000E+00  0.00000E+00  9.000E+00
      23     2     1     2     0     0 -1.689624466E-01  1.926997013E+00  2.206364862E+00  3.097461773E+01  3.083532118E+01  0.00000E+00  9.000E+00
      13     1     3     3     0     0  5.127011274E+00 -1.064313144E+01 -7.712698529E+00  1.410884027E+01  1.056583668E-01  0.00000E+00  9.000E+00
     -13     1     3     3     0     0 -5.295973721E+00  1.257012846E+01  9.919063391E+00  1.686577746E+01  1.056583668E-01  0.00000E+00  9.000E+00
      -4     1     1     2     0   511  1.689624466E-01 -1.926997013E+00 -5.140663612E+00  5.492566628E+00  0.000000000E+00  0.00000E+00  9.000E+00
#pdf  -4  4 0.25473757E-02 0.22086009E-02 0.30835321E+02 0.60694264E+00 0.64716635E+00
#rwgt            1           2   435.86130536339431         54217137    18413373           0
</event>
<event>
      6  10013  3.31628E+03  8.18568E+01 -1.00000E+00  1.27845E-01
       2    -1     0     0   501     0  0.000000000E+00  0.000000000E+00  1.032960464E+03  1.032960464E+03  0.000000000E+00  0.00000E+00  9.000E+00
      21    -1     0     0   511   501  0.000000000E+00  0.000000000E+00 -1.328439365E+01  1.328439365E+01  0.000000000E+00  0.00000E+00  9.000E+00
      23     2     1     2     0     0  6.834320609E+01 -4.505273801E+01  3.262773687E+02  3.480312066E+02  8.926509082E+01  0.00000E+00  9.000E+00
      13     1     3     3     0     0  3.899958972E+00 -4.466069554E+01  6.525308419E+01  7.916920845E+01  1.056583668E-01  0.00000E+00  9.000E+00
     -13     1     3     3     0     0  6.444324712E+01 -3.920424671E-01  2.610242845E+02  2.688619982E+02  1.056583668E-01  0.00000E+00  9.000E+00
       2     1     1     2   511     0 -6.834320609E+01  4.505273801E+01  6.933987017E+02  6.982136510E+02  0.000000000E+00  0.00000E+00  9.000E+00
#pdf   2 -2 0.38229595E-01 0.12333232E-02 0.89265091E+02 0.64194652E+00 0.13281506E+01
#rwgt            1           7   805.89942596330616         54217137    18413494           0
</event>
<event>
      6  10013  3.31628E+03  4.76271E+00 -1.00000E+00  2.46708E-01
      -2    -1     0     0     0   501  0.000000000E+00  0.000000000E+00  2.418653604E+00  2.418653604E+00  0.000000000E+00  0.00000E+00  9.000E+00
       2    -1     0     0   511     0  0.000000000E+00  0.000000000E+00 -5.886800632E+02  5.886800632E+02  0.000000000E+00  0.00000E+00  9.000E+00
      23     2     1     2     0     0  4.675329107E-01 -4.739706422E+00 -5.083722705E+02  5.130641002E+02  6.906317446E+01  0.00000E+00  9.000E+00
      13     1     3     3     0     0  1.783097647E+01  2.020933216E+01 -3.872209333E+02  3.881577298E+02  1.056583668E-01  0.00000E+00  9.000E+00
     -13     1     3     3     0     0 -1.736344356E+01 -2.494903858E+01 -1.211513372E+02  1.249063704E+02  1.056583668E-01  0.00000E+00  9.000E+00
      21     1     1     2   511   501 -4.675329107E-01  4.739706422E+00 -7.788913907E+01  7.803461661E+01  9.536743164E-07  0.00000E+00  9.000E+00
#pdf  -2  2 0.36005483E-03 0.78385859E-01 0.69063174E+02 0.20255873E+01 0.61960721E+00
#rwgt            1           4   431.41190849730418         54217137    18413562           0
</event>
<event>
      6  10013  3.31628E+03  6.20181E+00 -1.00000E+00  2.23187E-01
       2    -1     0     0   511     0  0.000000000E+00  0.000000000E+00  2.618592045E+02  2.618592045E+02  0.000000000E+00  0.00000E+00  9.000E+00
      -2    -1     0     0     0   501  0.000000000E+00  0.000000000E+00 -1.003348625E+01  1.003348625E+01  0.000000000E+00  0.00000E+00  9.000E+00
      23     2     1     2     0     0 -5.965184965E-01  6.173056402E+00  2.261536046E+02  2.454820891E+02  9.527612893E+01  0.00000E+00  9.000E+00
      13     1     3     3     0     0  4.102043506E+00 -2.385411827E+01  8.404434277E+00  2.562208810E+01  1.056583668E-01  0.00000E+00  9.000E+00
     -13     1     3     3     0     0 -4.698562003E+00  3.002717468E+01  2.177491704E+02  2.198600010E+02  1.056583668E-01  0.00000E+00  9.000E+00
      21     1     1     2   511   501  5.965184965E-01 -6.173056402E+00  2.567211363E+01  2.641060162E+01  0.000000000E+00  0.00000E+00  9.000E+00
#pdf   2 -2 0.36203052E-01 0.14836666E-02 0.95276129E+02 0.64467552E+00 0.12447193E+01
#rwgt            1           7   506.31868907148254         54217137    18413731           0
</event>
<event>
      6  10013  3.31628E+03  2.42510E+01 -1.00000E+00  1.59708E-01
      21    -1     0     0   501   511  0.000000000E+00  0.000000000E+00  2.486575055E+01  2.486575055E+01  0.000000000E+00  0.00000E+00  9.000E+00
      -2    -1     0     0     0   501  0.000000000E+00  0.000000000E+00 -1.617643671E+02  1.617643671E+02  0.000000000E+00  0.00000E+00  9.000E+00
      23     2     1     2     0     0  6.152076623E+00 -2.345766177E+01 -1.320499323E+02  1.618991718E+02  9.047677757E+01  0.00000E+00  9.000E+00
      13     1     3     3     0     0 -2.771925726E+01  2.179023644E+01 -6.709896135E+01  7.579876915E+01  1.056583668E-01  0.00000E+00  9.000E+00
     -13     1     3     3     0     0  3.387133389E+01 -4.524789821E+01 -6.495097092E+01  8.610040266E+01  1.056583668E-01  0.00000E+00  9.000E+00
      -2     1     1     2     0   511 -6.152076623E+00  2.345766177E+01 -4.848684278E+00  2.473094584E+01  0.000000000E+00  0.00000E+00  9.000E+00
#pdf   2 -2 0.22178100E-02 0.21840532E-01 0.90476778E+02 0.11600029E+01 0.33465165E+00
#rwgt            1           7   345.03328437609036         54217137    18413806           0
</event>
<event>
      6  10013  3.31628E+03  5.24592E+00 -1.00000E+00  2.34844E-01
      21    -1     0     0   511   501  0.000000000E+00  0.000000000E+00  1.511783867E+01  1.511783867E+01  0.000000000E+00  0.00000E+00  9.000E+00
       2    -1     0     0   501     0  0.000000000E+00  0.000000000E+00 -2.153509880E+02  2.153509880E+02  0.000000000E+00  0.00000E+00  9.000E+00
      23     2     1     2     0     0  5.194735664E+00  7.310476693E-01 -2.043872991E+02  2.237772895E+02  9.096475985E+01  0.00000E+00  9.000E+00
      13     1     3     3     0     0 -2.587242552E+01  4.681274499E+00 -1.851836331E+02  1.870408669E+02  1.056583668E-01  0.00000E+00  9.000E+00
     -13     1     3     3     0     0  3.106716119E+01 -3.950226830E+00 -1.920366602E+01  3.673642264E+01  1.056583668E-01  0.00000E+00  9.000E+00
       2     1     1     2   511     0 -5.194735664E+00 -7.310476693E-01  4.154149803E+00  6.691537185E+00  0.000000000E+00  0.00000E+00  9.000E+00
#pdf  -2  2 0.14890636E-02 0.32881105E-01 0.90964760E+02 0.12343980E+01 0.64835041E+00
#rwgt            1           4   892.13236754471257         54217137    18413849           0
</event>
<event>
      6  10013  3.31628E+03  7.94295E+01 -1.00000E+00  1.28476E-01
      21    -1     0     0   511   501  0.000000000E+00  0.000000000E+00  1.049707799E+02  1.049707799E+02  0.000000000E+00  0.00000E+00  9.000E+00
       1    -1     0     0   501     0  0.000000000E+00  0.000000000E+00 -9.840491865E+01  9.840491865E+01  0.000000000E+00  0.00000E+00  9.000E+00
      23     2     1     2     0     0 -4.253766838E+01 -6.707894959E+01 -1.162473741E+01  1.218898925E+02  9.172225824E+01  0.00000E+00  9.000E+00
      13     1     3     3     0     0 -2.974217757E+01 -2.343919172E+01 -4.976630604E+01  6.253550364E+01  1.056583668E-01  0.00000E+00  9.000E+00
     -13     1     3     3     0     0 -1.279549081E+01 -4.363975787E+01  3.814156863E+01  5.935438883E+01  1.056583668E-01  0.00000E+00  9.000E+00
       1     1     1     2   511     0  4.253766838E+01  6.707894959E+01  1.819059862E+01  8.148580605E+01  0.000000000E+00  0.00000E+00  9.000E+00
#pdf  -1  1 0.64118906E-02 0.77638416E-02 0.91722258E+02 0.66739772E+00 0.73149642E+00
#rwgt            1           5   707.19367830510305         54217137    18413990           0
</event>
<event>
      6  10013  3.31628E+03  2.86854E+00 -1.00000E+00  3.02756E-01
      21    -1     0     0   501   511  0.000000000E+00  0.000000000E+00  5.210457610E+02  5.210457610E+02  0.000000000E+00  0.00000E+00  9.000E+00
      -4    -1     0     0     0   501  0.000000000E+00  0.000000000E+00 -2.995326694E-01  2.995326694E-01  0.000000000E+00  0.00000E+00  9.000E+00
      23     2     1     2     0     0 -2.841515176E+00  3.928016296E-01  4.728863350E+02  4.733995129E+02  2.184913055E+01  0.00000E+00  9.000E+00
      13     1     3     3     0     0 -9.703766323E+00  5.284737864E+00  1.513949499E+02  1.517976731E+02  1.056583668E-01  0.00000E+00  9.000E+00
     -13     1     3     3     0     0  6.862251147E+00 -4.891936234E+00  3.214913851E+02  3.216018398E+02  1.056583668E-01  0.00000E+00  9.000E+00
      -4     1     1     2     0   511  2.841515176E+00 -3.928016296E-01  4.785989332E+01  4.794578074E+01  0.000000000E+00  0.00000E+00  9.000E+00
#pdf   4 -4 0.72171876E-01 0.39139351E-04 0.21849131E+02 0.47759126E-01 0.24199143E+01
#rwgt            1           9   161.23367684654741         54217137    18414015           0
</event>
<event>
      6  10013  3.31628E+03  2.81429E+00 -1.00000E+00  3.05403E-01
      -3    -1     0     0     0   501  0.000000000E+00  0.000000000E+00  1.685133446E+00  1.685133446E+00  0.000000000E+00  0.00000E+00  9.000E+00
      21    -1     0     0   501   511  0.000000000E+00  0.000000000E+00 -1.998479223E+02  1.998479223E+02  0.000000000E+00  0.00000E+00  9.000E+00
      23     2     1     2     0     0 -1.119979736E+00 -2.581835178E+00 -6.246396138E+01  6.580504830E+01  2.050945350E+01  0.00000E+00  9.000E+00
      13     1     3     3     0     0 -1.046907945E+01 -3.929236597E+00 -3.109700007E+01  3.304655960E+01  1.056583668E-01  0.00000E+00  9.000E+00
     -13     1     3     3     0     0  9.349099711E+00  1.347401419E+00 -3.136696131E+01  3.275848869E+01  1.056583668E-01  0.00000E+00  9.000E+00
      -3     1     1     2     0   511  1.119979736E+00  2.581835178E+00 -1.356988275E+02  1.357280074E+02  0.000000000E+00  0.00000E+00  9.000E+00
#pdf  -3  3 0.25462073E-03 0.97752465E-02 0.20509453E+02 0.16131722E+01 0.42426832E+00
#rwgt            1           3   174.51220604304123         54217137    18414227           0
</event>
<event>
      6  10013  3.31628E+03  1.53643E+01 -1.00000E+00  1.76360E-01
      21    -1     0     0   501   511  0.000000000E+00  0.000000000E+00  3.548655954E+00  3.548655954E+00  0.000000000E+00  0.00000E+00  9.000E+00
      -1    -1     0     0     0   501  0.000000000E+00  0.000000000E+00 -7.851004609E+02  7.851004609E+02  0.000000000E+00  0.00000E+00  9.000E+00
      23     2     1     2     0     0 -1.374807912E+01  6.859410780E+00 -6.566713809E+02  6.628270937E+02  8.880536290E+01  0.00000E+00  9.000E+00
      13     1     3     3     0     0 -2.656550183E+00  4.567098459E+01 -4.446667678E+02  4.470139166E+02  1.056583668E-01  0.00000E+00  9.000E+00
     -13     1     3     3     0     0 -1.109152893E+01 -3.881157381E+01 -2.120046131E+02  2.158131771E+02  1.056583668E-01  0.00000E+00  9.000E+00
      -1     1     1     2     0   511  1.374807912E+01 -6.859410780E+00 -1.248804240E+02  1.258220231E+02  0.000000000E+00  0.00000E+00  9.000E+00
#pdf   1 -1 0.46658478E-03 0.10001407E+00 0.88805363E+02 0.19708583E+01 0.11478157E+00
#rwgt            1           6   273.86628314547369         54217137    18414282           0
</event>
<event>
      6  10013  3.31628E+03  9.78117E+00 -1.00000E+00  1.96815E-01
       1    -1     0     0   501     0  0.000000000E+00  0.000000000E+00  1.682025574E+03  1.682025574E+03  0.000000000E+00  0.00000E+00  9.000E+00
      -1    -1     0     0     0   511  0.000000000E+00  0.000000000E+00 -5.562488392E+00  5.562488392E+00  0.000000000E+00  0.00000E+00  9.000E+00
      23     2     1     2     0     0  9.303636048E+00 -3.018885133E+00  1.675186287E+03  1.677723909E+03  9.172103127E+01  0.00000E+00  9.000E+00
      13     1     3     3     0     0 -2.658240352E+01  1.677200094E+01  2.526794243E+02  2.546268384E+02  1.056583668E-01  0.00000E+00  9.000E+00
     -13     1     3     3     0     0  3.588603957E+01 -1.979088607E+01  1.422506862E+03  1.423097070E+03  1.056583668E-01  0.00000E+00  9.000E+00
      21     1     1     2   501   511 -9.303636048E+00  3.018885133E+00  1.276798895E+00  9.864153617E+00  7.638934623E-07  0.00000E+00  9.000E+00
#pdf   1 -1 0.25646202E+00 0.19410114E-03 0.91721031E+02 0.17043082E+00 0.26973811E+01
#rwgt            1           6   762.39863592104098         54217137    18414317           0
</event>
<event>
      6  10013  3.31628E+03  4.13229E+00 -1.00000E+00  2.60079E-01
       2    -1     0     0   501     0  0.000000000E+00  0.000000000E+00  2.691986654E+02  2.691986654E+02  0.000000000E+00  0.00000E+00  9.000E+00
      21    -1     0     0   511   501  0.000000000E+00  0.000000000E+00 -1.459529141E+00  1.459529141E+00  0.000000000E+00  0.00000E+00  9.000E+00
      23     2     1     2     0     0  2.168027879E-01  4.126596418E+00  2.646850916E+02  2.655198106E+02  2.062756066E+01  0.00000E+00  9.000E+00
      13     1     3     3     0     0 -7.459338680E+00 -4.430688378E-01  4.228250308E+01  4.293785363E+01  1.056583668E-01  0.00000E+00  9.000E+00
     -13     1     3     3     0     0  7.676141468E+00  4.569665256E+00  2.224025886E+02  2.225819569E+02  1.056583668E-01  0.00000E+00  9.000E+00
       2     1     1     2   511     0 -2.168027879E-01 -4.126596418E+00  3.054044615E+00  5.138383983E+00  0.000000000E+00  0.00000E+00  9.000E+00
#pdf   2 -2 0.39990447E-01 0.62958269E-04 0.20627561E+02 0.62325839E+00 0.25616893E+01
#rwgt            1           7   1906.9219915257277         54217137    18414371           0
</event>
<event>
      6  10013  3.31628E+03  1.78152E+00 -1.00000E+00  3.88017E-01
      21    -1     0     0   511   501  0.000000000E+00  0.000000000E+00  1.526899899E+01  1.526899899E+01  0.000000000E+00  0.00000E+00  9.000E+00
       2    -1     0     0   501     0  0.000000000E+00  0.000000000E+00 -1.707259046E+02  1.707259046E+02  0.000000000E+00  0.00000E+00  9.000E+00
      23     2     1     2     0     0  1.698623885E+00 -5.371121404E-01 -1.595455332E+02  1.815350058E+02  8.658526059E+01  0.00000E+00  9.000E+00
      13     1     3     3     0     0  3.719744308E+01  1.480497374E+01 -4.305362544E+01  5.879169028E+01  1.056583668E-01  0.00000E+00  9.000E+00
     -13     1     3     3     0     0 -3.549881920E+01 -1.534208588E+01 -1.164919078E+02  1.227433156E+02  1.056583668E-01  0.00000E+00  9.000E+00
       2     1     1     2   511     0 -1.698623885E+00  5.371121404E-01  4.088627605E+00  4.459897784E+00  0.000000000E+00  0.00000E+00  9.000E+00
#pdf  -2  2 0.16911400E-02 0.26231413E-01 0.86585261E+02 0.11633301E+01 0.65932053E+00
#rwgt            1           4   1106.6334331087005         54217137    18414424           0
</event>
<event>
      6  10013  3.31628E+03  3.06317E+01 -1.00000E+00  1.52379E-01
      -2    -1     0     0     0   501  0.000000000E+00  0.000000000E+00  5.671600590E+00  5.671600590E+00  0.000000000E+00  0.00000E+00  9.000E+00
       2    -1     0     0   511     0  0.000000000E+00  0.000000000E+00 -7.320699866E+02  7.320699866E+02  0.000000000E+00  0.00000E+00  9.000E+00
      23     2     1     2     0     0  1.872345717E+01  2.424321110E+01 -4.941072669E+02  5.034395062E+02  9.149341003E+01  0.00000E+00  9.000E+00
      13     1     3     3     0     0 -2.171528760E-01  6.084251972E+00 -4.617053648E+02  4.617455147E+02  1.056583668E-01  0.00000E+00  9.000E+00
     -13     1     3     3     0     0  1.894061005E+01  1.815895913E+01 -3.240190205E+01  4.169399148E+01  1.056583668E-01  0.00000E+00  9.000E+00
      21     1     1     2   511   501 -1.872345717E+01 -2.424321110E+01 -2.322911191E+02  2.343020810E+02  0.000000000E+00  0.00000E+00  9.000E+00
#pdf  -2  2 0.68072666E-03 0.72764603E-01 0.91493410E+02 0.16847582E+01 0.62028799E+00
#rwgt            1           4   1154.6135430434388         54217137    18414697           0
</event>
<event>
      6  10013  3.31628E+03  9.37646E+00 -1.00000E+00  1.98986E-01
       1    -1     0     0   511     0  0.000000000E+00  0.000000000E+00  1.661899959E+01  1.661899959E+01  0.000000000E+00  0.00000E+00  9.000E+00
      -1    -1     0     0     0   501  0.000000000E+00  0.000000000E+00 -1.618494131E+02  1.618494131E+02  0.000000000E+00  0.00000E+00  9.000E+00
      23     2     1     2     0     0 -8.608011144E+00 -3.717555915E+00 -1.473522317E+02  1.688548707E+02  8.192294599E+01  0.00000E+00  9.000E+00
      13     1     3     3     0     0  2.634518317E+01 -2.793935818E+01 -8.623026216E+01  9.439462743E+01  1.056583668E-01  0.00000E+00  9.000E+00
     -13     1     3     3     0     0 -3.495319431E+01  2.422180226E+01 -6.112196956E+01  7.446024324E+01  1.056583668E-01  0.00000E+00  9.000E+00
      21     1     1     2   511   501  8.608011144E+00  3.717555915E+00  2.121818196E+00  9.613542026E+00  2.965293637E-07  0.00000E+00  9.000E+00
#pdf   1 -1 0.16433205E-02 0.24165853E-01 0.81922946E+02 0.12338823E+01 0.33962367E+00
#rwgt            1           6   476.03497625380936         54217137    18414774           0
</event>
<event>
      6  10013  3.31628E+03  3.85930E+00 -1.00000E+00  2.67078E-01
       2    -1     0     0   501     0  0.000000000E+00  0.000000000E+00  1.946194021E+03  1.946194021E+03  0.000000000E+00  0.00000E+00  9.000E+00
      -2    -1     0     0     0   511  0.000000000E+00  0.000000000E+00 -1.118532717E-01  1.118532717E-01  0.000000000E+00  0.00000E+00  9.000E+00
      23     2     1     2     0     0  2.833563005E+00 -2.620130331E+00  1.745770338E+03  1.745956870E+03  2.522749741E+01  0.00000E+00  9.000E+00
      13     1     3     3     0     0 -3.568155371E-01  8.668544100E+00  2.689102940E+02  2.690502339E+02  1.056583668E-01  0.00000E+00  9.000E+00
     -13     1     3     3     0     0  3.190378542E+00 -1.128867443E+01  1.476860044E+03  1.476906636E+03  1.056583668E-01  0.00000E+00  9.000E+00
      21     1     1     2   501   511 -2.833563005E+00  2.620130331E+00  2.003118299E+02  2.003490039E+02  0.000000000E+00  0.00000E+00  9.000E+00
#pdf   2 -2 0.26550558E+00 0.14183649E-04 0.25227497E+02 0.45019001E+00 0.42921681E+01
#rwgt            1           7   3662.5356083111351         54217137    18414842           0
</event>
<event>
      6  10013  3.31628E+03  3.40010E+00 -1.00000E+00  2.81164E-01
      -2    -1     0     0     0   511  0.000000000E+00  0.000000000E+00  2.059103900E-01  2.059103900E-01  0.000000000E+00  0.00000E+00  9.000E+00
       2    -1     0     0   501     0  0.000000000E+00  0.000000000E+00 -2.613996361E+03  2.613996361E+03  0.000000000E+00  0.00000E+00  9.000E+00
      23     2     1     2     0     0  1.595742902E+00 -3.002377434E+00 -2.475795570E+03  2.476165509E+03  4.266571713E+01  0.00000E+00  9.000E+00
      13     1     3     3     0     0 -1.844835641E+01  7.638127296E+00 -1.059416678E+03  1.059604828E+03  1.056583668E-01  0.00000E+00  9.000E+00
     -13     1     3     3     0     0  2.004409931E+01 -1.064050473E+01 -1.416378892E+03  1.416560681E+03  1.056583668E-01  0.00000E+00  9.000E+00
      21     1     1     2   501   511 -1.595742902E+00  3.002377434E+00 -1.379948810E+02  1.380367626E+02  1.907348633E-06  0.00000E+00  9.000E+00
#pdf  -2  2 0.28366922E-04 0.37971625E+00 0.42665717E+02 0.41953490E+01 0.25923170E+00
#rwgt            1           4   7439.1440103621080         54217137    18414944           0
</event>
<event>
      6  10013  3.31628E+03  3.62642E+00 -1.00000E+00  2.73807E-01
       1    -1     0     0   501     0  0.000000000E+00  0.000000000E+00  1.466880682E+03  1.466880682E+03  0.000000000E+00  0.00000E+00  9.000E+00
      21    -1     0     0   511   501  0.000000000E+00  0.000000000E+00 -1.336650913E-01  1.336650913E-01  0.000000000E+00  0.00000E+00  9.000E+00
      23     2     1     2     0     0  3.606853537E+00 -3.761676488E-01  1.402016667E+03  1.402182494E+03  2.125706475E+01  0.00000E+00  9.000E+00
      13     1     3     3     0     0 -1.336632231E+00 -8.421026281E+00  1.063397326E+03  1.063431514E+03  1.056583668E-01  0.00000E+00  9.000E+00
     -13     1     3     3     0     0  4.943485768E+00  8.044858632E+00  3.386193404E+02  3.387509803E+02  1.056583668E-01  0.00000E+00  9.000E+00
       1     1     1     2   511     0 -3.606853537E+00  3.761676488E-01  6.473035019E+01  6.483185274E+01  0.000000000E+00  0.00000E+00  9.000E+00
#pdf   1 -1 0.21263557E+00 0.12574304E-04 0.21257065E+02 0.25046781E+00 0.41506184E+01
#rwgt            1           6   450.13656997601066         54217137    18415135           0
</event>
<event>
      6  10013  3.31628E+03  1.69253E+01 -1.00000E+00  1.72536E-01
      21    -1     0     0   501   511  0.000000000E+00  0.000000000E+00  1.243050296E+01  1.243050296E+01  0.000000000E+00  0.00000E+00  9.000E+00
      -4    -1     0     0     0   501  0.000000000E+00  0.000000000E+00 -2.905831165E+02  2.905831165E+02  0.000000000E+00  0.00000E+00  9.000E+00
      23     2     1     2     0     0 -7.753582639E+00 -1.504490773E+01 -2.658905556E+02  2.821132521E+02  9.275576609E+01  0.00000E+00  9.000E+00
      13     1     3     3     0     0 -1.371235821E+01 -4.743474030E+01 -2.209332671E+02  2.263837517E+02  1.056583668E-01  0.00000E+00  9.000E+00
     -13     1     3     3     0     0  5.958775572E+00  3.238983257E+01 -4.495728855E+01  5.572950042E+01  1.056583668E-01  0.00000E+00  9.000E+00
      -4     1     1     2     0   511  7.753582639E+00  1.504490773E+01 -1.226205794E+01  2.090036740E+01  0.000000000E+00  0.00000E+00  9.000E+00
#pdf   4 -4 0.12276294E-02 0.41469408E-01 0.92755766E+02 0.10786117E+01 0.10503541E+00
#rwgt            1           9   90.849588318914385         54217137    18415174           0
</event>
<event>
      6  10013  3.31628E+03  9.26119E-01 -1.00000E+00  7.17061E-01
       1    -1     0     0   501     0  0.000000000E+00  0.000000000E+00  1.110440936E+03  1.110440936E+03  0.000000000E+00  0.00000E+00  9.000E+00
      -1    -1     0     0     0   511  0.000000000E+00  0.000000000E+00 -2.027927316E+00  2.027927316E+00  0.000000000E+00  0.00000E+00  9.000E+00
      23     2     1     2     0     0  6.135769742E-01 -6.936998078E-01  1.102994837E+03  1.106972111E+03  9.374853336E+01  0.00000E+00  9.000E+00
      13     1     3     3     0     0 -4.235275671E+01 -1.023790731E+00  7.775178366E+02  7.786711768E+02  1.056583668E-01  0.00000E+00  9.000E+00
     -13     1     3     3     0     0  4.296633368E+01  3.300909228E-01  3.254770002E+02  3.283009345E+02  1.056583668E-01  0.00000E+00  9.000E+00
      21     1     1     2   501   511 -6.135769742E-01  6.936998078E-01  5.418172176E+00  5.496752301E+00  1.192092896E-07  0.00000E+00  9.000E+00
#pdf   1 -1 0.16998916E+00 0.30592927E-03 0.93748533E+02 0.26676037E+00 0.22952149E+01
#rwgt            1           6   1095.8797738218855         54217137    18415296           0
</event>
<event>
      6  10013  3.31628E+03  1.42630E+00 -1.00000E+00  4.62193E-01
       2    -1     0     0   511     0  0.000000000E+00  0.000000000E+00  8.818013597E+00  8.818013597E+00  0.000000000E+00  0.00000E+00  9.000E+00
      -2    -1     0     0     0   501  0.000000000E+00  0.000000000E+00 -1.753892616E+01  1.753892616E+01  0.000000000E+00  0.00000E+00  9.000E+00
      23     2     1     2     0     0 -1.162218514E+00 -8.267827182E-01 -1.043683312E+01  2.412563858E+01  2.170448409E+01  0.00000E+00  9.000E+00
      13     1     3     3     0     0 -7.223227695E+00  7.811560123E+00 -7.954259708E+00  1.328446089E+01  1.056583668E-01  0.00000E+00  9.000E+00
     -13     1     3     3     0     0  6.061009181E+00 -8.638342842E+00 -2.482573416E+00  1.084117769E+01  1.056583668E-01  0.00000E+00  9.000E+00
      21     1     1     2   511   501  1.162218514E+00  8.267827182E-01  1.715920564E+00  2.231301172E+00  2.980232239E-08  0.00000E+00  9.000E+00
#pdf   2 -2 0.10507188E-02 0.26529297E-02 0.21704484E+02 0.11364644E+01 0.77340420E+00
#rwgt            1           7   724.21381316550401         54217137    18415619           0
</event>
<event>
      6  10013  3.31628E+03  3.16626E+00 -1.00000E+00  2.89804E-01
      -2    -1     0     0     0   511  0.000000000E+00  0.000000000E+00  8.425846668E-01  8.425846668E-01  0.000000000E+00  0.00000E+00  9.000E+00
       2    -1     0     0   501     0  0.000000000E+00  0.000000000E+00 -1.971175569E+02  1.971175569E+02  0.000000000E+00  0.00000E+00  9.000E+00
      23     2     1     2     0     0  3.049633286E+00 -8.514354277E-01 -1.872558523E+02  1.884013901E+02  2.050132587E+01  0.00000E+00  9.000E+00
      13     1     3     3     0     0  9.047831407E+00  6.452371686E+00 -1.133805960E+02  1.139239530E+02  1.056583668E-01  0.00000E+00  9.000E+00
     -13     1     3     3     0     0 -5.998198122E+00 -7.303807114E+00 -7.387525623E+01  7.447743702E+01  1.056583668E-01  0.00000E+00  9.000E+00
      21     1     1     2   501   511 -3.049633286E+00  8.514354277E-01 -9.019120009E+00  9.558751550E+00  3.371747881E-07  0.00000E+00  9.000E+00
#pdf  -2  2 0.87085816E-04 0.28558130E-01 0.20501326E+02 0.23191768E+01 0.62333240E+00
#rwgt            1           4   1549.1608506168814         54217137    18415764           0
</event>
<event>
      6  10013  3.31628E+03  1.28013E+01 -1.00000E+00  1.84073E-01
      21    -1     0     0   511   501  0.000000000E+00  0.000000000E+00  6.571646664E-01  6.571646664E-01  0.000000000E+00  0.00000E+00  9.000E+00
       2    -1     0     0   501     0  0.000000000E+00  0.000000000E+00 -1.419150494E+03  1.419150494E+03  0.000000000E+00  0.00000E+00  9.000E+00
      23     2     1     2     0     0 -6.275420334E+00  1.115762161E+01 -4.884676338E+02  4.896938657E+02  3.218042048E+01  0.00000E+00  9.000E+00
      13     1     3     3     0     0 -3.206024304E+00 -1.124167307E+01 -2.001651690E+02  2.005062589E+02  1.056583668E-01  0.00000E+00  9.000E+00
     -13     1     3     3     0     0 -3.069396029E+00  2.239929468E+01 -2.883024648E+02  2.891876069E+02  1.056583668E-01  0.00000E+00  9.000E+00
       2     1     1     2   511     0  6.275420334E+00 -1.115762161E+01 -9.300256952E+02  9.301137926E+02  0.000000000E+00  0.00000E+00  9.000E+00
#pdf  -2  2 0.87645454E-04 0.69914512E-01 0.32180420E+02 0.26863450E+01 0.62753831E+00
#rwgt            1           4   2059.6637283590017         54217137    18415871           0
</event>
<event>
      6  10013  3.31628E+03  5.45395E+00 -1.00000E+00  2.32023E-01
      -2    -1     0     0     0   511  0.000000000E+00  0.000000000E+00  1.203082516E+01  1.203082516E+01  0.000000000E+00  0.00000E+00  9.000E+00
       2    -1     0     0   501     0  0.000000000E+00  0.000000000E+00 -9.837412493E+01  9.837412493E+01  0.000000000E+00  0.00000E+00  9.000E+00
      23     2     1     2     0     0  1.704219421E+00  5.180851600E+00 -7.996739596E+01  1.020146142E+02  6.310666767E+01  0.00000E+00  9.000E+00
      13     1     3     3     0     0  1.827016521E+01 -2.377198872E+01 -3.738599494E+01  4.792316941E+01  1.056583668E-01  0.00000E+00  9.000E+00
     -13     1     3     3     0     0 -1.656594578E+01  2.895284032E+01 -4.258140102E+01  5.409144478E+01  1.056583668E-01  0.00000E+00  9.000E+00
      21     1     1     2   501   511 -1.704219421E+00 -5.180851600E+00 -6.375903808E+00  8.390335899E+00  1.460009660E-07  0.00000E+00  9.000E+00
#pdf  -2  2 0.16896415E-02 0.13946628E-01 0.63106668E+02 0.11090106E+01 0.70202583E+00
#rwgt            1           4   1196.4792745810716         54217137    18415976           0
</event>
<event>
      6  10013  3.31628E+03  1.86243E+00 -1.00000E+00  3.77924E-01
      21    -1     0     0   501   511  0.000000000E+00  0.000000000E+00  1.405890855E+02  1.405890855E+02  0.000000000E+00  0.00000E+00  9.000E+00
      -4    -1     0     0     0   501  0.000000000E+00  0.000000000E+00 -1.294364548E+00  1.294364548E+00  0.000000000E+00  0.00000E+00  9.000E+00
      23     2     1     2     0     0  1.582352694E+00 -9.822407434E-01  1.315302404E+02  1.338987275E+02  2.500392835E+01  0.00000E+00  9.000E+00
      13     1     3     3     0     0 -2.497152466E-01 -1.051355251E+01  2.792499489E+01  2.983979972E+01  1.056583668E-01  0.00000E+00  9.000E+00
     -13     1     3     3     0     0  1.832067940E+00  9.531311765E+00  1.036052455E+02  1.040589277E+02  1.056583668E-01  0.00000E+00  9.000E+00
      -4     1     1     2     0   511 -1.582352694E+00  9.822407434E-01  7.764480574E+00  7.984722632E+00  0.000000000E+00  0.00000E+00  9.000E+00
#pdf   4 -4 0.20361208E-01 0.18168800E-03 0.25003928E+02 0.17507790E+00 0.15663660E+01
#rwgt            1           9   269.52969419926893         54217137    18416087           0
</event>
<event>
      6  10013  3.31628E+03  2.13306E+01 -1.00000E+00  1.64053E-01
      -1    -1     0     0     0   501  0.000000000E+00  0.000000000E+00  3.900695986E+01  3.900695986E+01  0.000000000E+00  0.00000E+00  9.000E+00
      21    -1     0     0   501   511  0.000000000E+00  0.000000000E+00 -1.310222775E+02  1.310222775E+02  0.000000000E+00  0.00000E+00  9.000E+00
      23     2     1     2     0     0 -3.530667481E+00 -2.103639623E+01  1.156660373E+01  6.427381189E+01  5.951756879E+01  0.00000E+00  9.000E+00
      13     1     3     3     0     0 -2.348902536E+01 -8.782576828E+00  2.651036837E+01  3.649217399E+01  1.056583668E-01  0.00000E+00  9.000E+00
     -13     1     3     3     0     0  1.995835788E+01 -1.225381940E+01 -1.494376464E+01  2.778163790E+01  1.056583668E-01  0.00000E+00  9.000E+00
      -1     1     1     2     0   511  3.530667481E+00  2.103639623E+01 -1.035819213E+02  1.057554254E+02  0.000000000E+00  0.00000E+00  9.000E+00
#pdf  -1  1 0.54918311E-02 0.38166865E-02 0.59517569E+02 0.68474769E+00 0.88374197E+00
#rwgt            1           5   900.71488846589284         54217137    18416337           0
</event>
<event>
      6  10013  3.31628E+03  6.44637E+01 -1.00000E+00  1.33033E-01
      21    -1     0     0   511   501  0.000000000E+00  0.000000000E+00  1.378910267E+01  1.378910267E+01  0.000000000E+00  0.00000E+00  9.000E+00
       1    -1     0     0   501     0  0.000000000E+00  0.000000000E+00 -8.554963110E+02  8.554963110E+02  0.000000000E+00  0.00000E+00  9.000E+00
      23     2     1     2     0     0  3.266443423E+01  5.557523414E+01 -2.474446210E+02  2.715366415E+02  9.136594174E+01  0.00000E+00  9.000E+00
      13     1     3     3     0     0  1.163575001E+01  5.718425293E+01 -6.294010742E+01  8.583063408E+01  1.056583668E-01  0.00000E+00  9.000E+00
     -13     1     3     3     0     0  2.102868422E+01 -1.609018797E+00 -1.845045135E+02  1.857060074E+02  1.056583668E-01  0.00000E+00  9.000E+00
       1     1     1     2   511     0 -3.266443423E+01 -5.557523414E+01 -5.942625874E+02  5.977487722E+02  0.000000000E+00  0.00000E+00  9.000E+00
#pdf  -1  1 0.15142646E-02 0.32619719E-01 0.91365942E+02 0.12357789E+01 0.49195404E+00
#rwgt            1           5   605.67059919428050         54217137    18416387           0
</event>
<event>
      6  10013  3.31628E+03  1.49752E+00 -1.00000E+00  4.44917E-01
       2    -1     0     0   501     0  0.000000000E+00  0.000000000E+00  6.372667382E+01  6.372667382E+01  0.000000000E+00  0.00000E+00  9.000E+00
      -2    -1     0     0     0   511  0.000000000E+00  0.000000000E+00 -4.465092672E+00  4.465092672E+00  0.000000000E+00  0.00000E+00  9.000E+00
      23     2     1     2     0     0 -1.141226078E+00  9.696304565E-01  5.696842306E+01  6.545294299E+01  3.219384940E+01  0.00000E+00  9.000E+00
      13     1     3     3     0     0 -3.170386995E-02  1.489860786E+01  4.375228648E+01  4.621951165E+01  1.056583668E-01  0.00000E+00  9.000E+00
     -13     1     3     3     0     0 -1.109522208E+00 -1.392897740E+01  1.321613658E+01  1.923343134E+01  1.056583668E-01  0.00000E+00  9.000E+00
      21     1     1     2   501   511  1.141226078E+00 -9.696304565E-01  2.293158082E+00  2.738823502E+00  0.000000000E+00  0.00000E+00  9.000E+00
#pdf   2 -2 0.94068567E-02 0.65195044E-03 0.32193849E+02 0.71092043E+00 0.13844769E+01
#rwgt            1           7   997.24528372412294         54217137    18416433           0
</event>
<event>
      6  10013  3.31628E+03  2.18594E+00 -1.00000E+00  3.45773E-01
       3    -1     0     0   501     0  0.000000000E+00  0.000000000E+00  2.907423099E+01  2.907423099E+01  0.000000000E+00  0.00000E+00  9.000E+00
      -3    -1     0     0     0   511  0.000000000E+00  0.000000000E+00 -9.225796890E+01  9.225796890E+01  0.000000000E+00  0.00000E+00  9.000E+00
      23     2     1     2     0     0 -2.038743187E+00 -7.885883504E-01 -4.296379653E+01  1.009944425E+02  9.137401853E+01  0.00000E+00  9.000E+00
      13     1     3     3     0     0  1.770512116E+01 -6.207987858E+00 -6.690869490E+01  6.948953192E+01  1.056583668E-01  0.00000E+00  9.000E+00
     -13     1     3     3     0     0 -1.974386435E+01  5.419399507E+00  2.394489837E+01  3.150491060E+01  1.056583668E-01  0.00000E+00  9.000E+00
      21     1     1     2   501   511  2.038743187E+00  7.885883504E-01 -2.021994138E+01  2.033775737E+01  2.384185791E-07  0.00000E+00  9.000E+00
#pdf   3 -3 0.44626190E-02 0.11070543E-01 0.91374019E+02 0.73792284E+00 0.46196767E+00
#rwgt            1           8   291.75572807240673         54217137    18416536           0
</event>
<event>
      6  10013 -3.31628E+03  7.05556E+00 -1.00000E+00  2.14999E-01
       3    -1     0     0   511     0  0.000000000E+00  0.000000000E+00  1.111731290E+01  1.111731290E+01  0.000000000E+00  0.00000E+00  9.000E+00
      -3    -1     0     0     0   501  0.000000000E+00  0.000000000E+00 -2.111002702E+02  2.111002702E+02  0.000000000E+00  0.00000E+00  9.000E+00
      23     2     1     2     0     0 -4.835611660E+00 -5.137882817E+00 -1.882956302E+02  2.085656750E+02  8.941261351E+01  0.00000E+00  9.000E+00
      13     1     3     3     0     0 -2.740953477E+01 -5.564800841E+00 -1.833256885E+02  1.854469434E+02  1.056583668E-01  0.00000E+00  9.000E+00
     -13     1     3     3     0     0  2.257392311E+01  4.269180248E-01 -4.969941667E+00  2.311873152E+01  1.056583668E-01  0.00000E+00  9.000E+00
      21     1     1     2   511   501  4.835611660E+00  5.137882817E+00 -1.168732714E+01  1.365190813E+01  1.685873940E-07  0.00000E+00  9.000E+00
#pdf   3 -3 0.15544022E-02 0.30433189E-01 0.89412614E+02 0.11725188E+01 0.23490652E+00
#rwgt            1           8  -87.584261399958450         54217137    18416631           0
</event>
<event>
      6  10013  3.31628E+03  3.29965E+01 -1.00000E+00  1.50189E-01
       3    -1     0     0   501     0  0.000000000E+00  0.000000000E+00  5.683719183E+01  5.683719183E+01  0.000000000E+00  0.00000E+00  9.000E+00
      21    -1     0     0   511   501  0.000000000E+00  0.000000000E+00 -1.394782288E+02  1.394782288E+02  0.000000000E+00  0.00000E+00  9.000E+00
      23     2     1     2     0     0 -2.889818510E+01  1.592674399E+01  2.210965372E+01  8.649068081E+01  7.683120982E+01  0.00000E+00  9.000E+00
      13     1     3     3     0     0  7.916381091E+00 -6.619166784E+00 -2.229037300E+01  2.456327239E+01  1.056583668E-01  0.00000E+00  9.000E+00
     -13     1     3     3     0     0 -3.681456619E+01  2.254591077E+01  4.440002672E+01  6.192740842E+01  1.056583668E-01  0.00000E+00  9.000E+00
       3     1     1     2   511     0  2.889818510E+01 -1.592674399E+01 -1.047506907E+02  1.098247398E+02  0.000000000E+00  0.00000E+00  9.000E+00
#pdf   3 -3 0.76759290E-02 0.45504850E-02 0.76831210E+02 0.55496513E+00 0.71687322E+00
#rwgt            1           8   502.16010466829857         54217137    18416698           0
</event>
<event>
      6  10013  3.31628E+03  1.25729E+01 -1.00000E+00  1.84872E-01
       2    -1     0     0   511     0  0.000000000E+00  0.000000000E+00  6.588385155E+02  6.588385155E+02  0.000000000E+00  0.00000E+00  9.000E+00
      -2    -1     0     0     0   501  0.000000000E+00  0.000000000E+00 -5.732730425E-01  5.732730425E-01  0.000000000E+00  0.00000E+00  9.000E+00
      23     2     1     2     0     0 -7.829571976E+00  9.837474364E+00  3.383163255E+02  3.392159304E+02  2.124695858E+01  0.00000E+00  9.000E+00
      13     1     3     3     0     0 -6.833225866E+00 -2.691969877E-01  3.160745881E+01  3.233895575E+01  1.056583668E-01  0.00000E+00  9.000E+00
     -13     1     3     3     0     0 -9.963461093E-01  1.010667135E+01  3.067088667E+02  3.068769746E+02  1.056583668E-01  0.00000E+00  9.000E+00
      21     1     1     2   511   501  7.829571976E+00 -9.837474364E+00  3.199489170E+02  3.201958581E+02  3.814697266E-06  0.00000E+00  9.000E+00
#pdf   2 -2 0.44853103E-01 0.59554467E-04 0.21246959E+02 0.62459980E+00 0.26325694E+01
#rwgt            1           7   1527.5750356431279         54217137    18416740           0
</event>
<event>
      6  10013  3.31628E+03  3.69484E+00 -1.00000E+00  2.71749E-01
       1    -1     0     0   511     0  0.000000000E+00  0.000000000E+00  3.833027778E+02  3.833027778E+02  0.000000000E+00  0.00000E+00  9.000E+00
      -1    -1     0     0     0   501  0.000000000E+00  0.000000000E+00 -7.998805758E+00  7.998805758E+00  0.000000000E+00  0.00000E+00  9.000E+00
      23     2     1     2     0     0  2.844013146E+00 -2.358696968E+00  2.803011356E+02  2.962269245E+02  9.574973797E+01  0.00000E+00  9.000E+00
      13     1     3     3     0     0 -1.724219476E+01 -4.276532831E+01  1.867980098E+02  1.924049745E+02  1.056583668E-01  0.00000E+00  9.000E+00
     -13     1     3     3     0     0  2.008620790E+01  4.040663134E+01  9.350312583E+01  1.038219500E+02  1.056583668E-01  0.00000E+00  9.000E+00
      21     1     1     2   511   501 -2.844013146E+00  2.358696968E+00  9.500283642E+01  9.507465903E+01  0.000000000E+00  0.00000E+00  9.000E+00
#pdf   1 -1 0.44315330E-01 0.12241496E-02 0.95749738E+02 0.45768052E+00 0.13550400E+01
#rwgt            1           6   903.50158370346242         54217137    18416773           0
</event>
<event>
      6  10013  3.31628E+03  3.01271E+00 -1.00000E+00  2.96173E-01
      -1    -1     0     0     0   501  0.000000000E+00  0.000000000E+00  3.713819467E+00  3.713819467E+00  0.000000000E+00  0.00000E+00  9.000E+00
       1    -1     0     0   511     0  0.000000000E+00  0.000000000E+00 -1.951426666E+02  1.951426666E+02  0.000000000E+00  0.00000E+00  9.000E+00
      23     2     1     2     0     0  4.011732701E-01 -2.985880155E+00 -7.356704834E+01  8.095618906E+01  3.365586910E+01  0.00000E+00  9.000E+00
      13     1     3     3     0     0 -1.135941641E+01 -6.049851165E+00 -1.016691281E+01  1.640165601E+01  1.056583668E-01  0.00000E+00  9.000E+00
     -13     1     3     3     0     0  1.176058968E+01  3.063971009E+00 -6.340013553E+01  6.455453305E+01  1.056583668E-01  0.00000E+00  9.000E+00
      21     1     1     2   511   501 -4.011732701E-01  2.985880155E+00 -1.178617987E+02  1.179002970E+02  1.348699152E-06  0.00000E+00  9.000E+00
#pdf  -1  1 0.56613177E-03 0.11839065E-01 0.33655869E+02 0.14750282E+01 0.59968071E+00
#rwgt            1           5   216.79312404421199         54217137    18416919           0
</event>
<event>
      6  10013  3.31628E+03  1.94354E+01 -1.00000E+00  1.67360E-01
       2    -1     0     0   501     0  0.000000000E+00  0.000000000E+00  1.752895848E+02  1.752895848E+02  0.000000000E+00  0.00000E+00  9.000E+00
      21    -1     0     0   511   501  0.000000000E+00  0.000000000E+00 -1.976110881E+01  1.976110881E+01  0.000000000E+00  0.00000E+00  9.000E+00
      23     2     1     2     0     0  1.743602313E+01 -8.586091226E+00  1.474298722E+02  1.739954508E+02  9.033888319E+01  0.00000E+00  9.000E+00
      13     1     3     3     0     0 -1.660432145E+01 -4.095607602E+01  5.734216313E+01  7.239639832E+01  1.056583668E-01  0.00000E+00  9.000E+00
     -13     1     3     3     0     0  3.404034458E+01  3.236998480E+01  9.008770908E+01  1.015990525E+02  1.056583668E-01  0.00000E+00  9.000E+00
       2     1     1     2   511     0 -1.743602313E+01  8.586091226E+00  8.098603749E+00  2.105524277E+01  0.000000000E+00  0.00000E+00  9.000E+00
#pdf   2 -2 0.24171955E-01 0.19977952E-02 0.90338883E+02 0.66528412E+00 0.10924618E+01
#rwgt            1           7   648.48378238746329         54217137    18417008           0
</event>
<event>
      6  10013  3.31628E+03  3.30676E+01 -1.00000E+00  1.50126E-01
       2    -1     0     0   501     0  0.000000000E+00  0.000000000E+00  2.843744007E+03  2.843744007E+03  0.000000000E+00  0.00000E+00  9.000E+00
      21    -1     0     0   511   501  0.000000000E+00  0.000000000E+00 -1.504189900E+00  1.504189900E+00  0.000000000E+00  0.00000E+00  9.000E+00
      23     2     1     2     0     0  1.527523778E+01  2.932804503E+01  2.015123964E+03  2.017471595E+03  9.150727778E+01  0.00000E+00  9.000E+00
      13     1     3     3     0     0 -2.142102355E+01  3.779520182E+01  1.613751928E+03  1.614336593E+03  1.056583668E-01  0.00000E+00  9.000E+00
     -13     1     3     3     0     0  3.669626132E+01 -8.467156789E+00  4.013720352E+02  4.031350024E+02  1.056583668E-01  0.00000E+00  9.000E+00
       2     1     1     2   511     0 -1.527523778E+01 -2.932804503E+01  8.271158531E+02  8.277766012E+02  0.000000000E+00  0.00000E+00  9.000E+00
#pdf   2 -2 0.29173574E+00 0.16983802E-03 0.91507278E+02 0.35596540E+00 0.28245502E+01
#rwgt            1           7   1750.0457808835022         54217137    18417100           0
</event>
<event>
      6  10013  3.31628E+03  9.50570E+00 -1.00000E+00  1.98277E-01
      -2    -1     0     0     0   501  0.000000000E+00  0.000000000E+00  4.224442980E+01  4.224442980E+01  0.000000000E+00  0.00000E+00  9.000E+00
       2    -1     0     0   511     0  0.000000000E+00  0.000000000E+00 -9.549925458E+01  9.549925458E+01  0.000000000E+00  0.00000E+00  9.000E+00
      23     2     1     2     0     0 -8.451265086E+00 -4.351366343E+00 -8.290001656E+00  9.178507703E+01  9.091434412E+01  0.00000E+00  9.000E+00
      13     1     3     3     0     0  2.687565540E+00  2.832126635E+01  2.923871048E+01  4.079498119E+01  1.056583668E-01  0.00000E+00  9.000E+00
     -13     1     3     3     0     0 -1.113883063E+01 -3.267263269E+01 -3.752871214E+01  5.099009583E+01  1.056583668E-01  0.00000E+00  9.000E+00
      21     1     1     2   511   501  8.451265086E+00  4.351366343E+00 -4.496482312E+01  4.595860735E+01  0.000000000E+00  0.00000E+00  9.000E+00
#pdf  -2  2 0.63878766E-02 0.76563468E-02 0.90914344E+02 0.65216759E+00 0.80980382E+00
#rwgt            1           4   511.64708248295710         54217137    18417140           0
</event>
<event>
      6  10013  3.31628E+03  1.88144E+01 -1.00000E+00  1.68546E-01
      21    -1     0     0   511   501  0.000000000E+00  0.000000000E+00  1.225353794E+02  1.225353794E+02  0.000000000E+00  0.00000E+00  9.000E+00
       2    -1     0     0   501     0  0.000000000E+00  0.000000000E+00 -4.616034325E+00  4.616034325E+00  0.000000000E+00  0.00000E+00  9.000E+00
      23     2     1     2     0     0 -7.915183400E+00 -1.706846501E+01  6.710589202E+01  7.296664061E+01  2.160896278E+01  0.00000E+00  9.000E+00
      13     1     3     3     0     0 -8.350537047E-01  4.927191201E+00  7.257611798E+00  8.812412866E+00  1.056583668E-01  0.00000E+00  9.000E+00
     -13     1     3     3     0     0 -7.080129695E+00 -2.199565621E+01  5.984828022E+01  6.415422775E+01  1.056583668E-01  0.00000E+00  9.000E+00
       2     1     1     2   511     0  7.915183400E+00  1.706846501E+01  5.081345306E+01  5.418477311E+01  0.000000000E+00  0.00000E+00  9.000E+00
#pdf  -2  2 0.81262563E-02 0.34000917E-03 0.21608963E+02 0.49883436E+00 0.15822261E+01
#rwgt            1           4   944.50113630946112         54217137    18417263           0
</event>
<event>
      6  10013  3.31628E+03  5.75332E+00 -1.00000E+00  2.28261E-01
       2    -1     0     0   501     0  0.000000000E+00  0.000000000E+00  4.740012586E+01  4.740012586E+01  0.000000000E+00  0.00000E+00  9.000E+00
      21    -1     0     0   511   501  0.000000000E+00  0.000000000E+00 -1.192371171E+01  1.192371171E+01  0.000000000E+00  0.00000E+00  9.000E+00
      23     2     1     2     0     0  4.613474398E+00  3.437523726E+00  4.356843616E+01  4.939501410E+01  2.255123218E+01  0.00000E+00  9.000E+00
      13     1     3     3     0     0  1.089015143E+01 -2.693159381E-02  3.986325414E+01  4.132416143E+01  1.056583668E-01  0.00000E+00  9.000E+00
     -13     1     3     3     0     0 -6.276677036E+00  3.464455320E+00  3.705182018E+00  8.070852666E+00  1.056583668E-01  0.00000E+00  9.000E+00
       2     1     1     2   511     0 -4.613474398E+00 -3.437523726E+00 -8.092022014E+00  9.928823478E+00  0.000000000E+00  0.00000E+00  9.000E+00
#pdf   2 -2 0.69290909E-02 0.43428776E-03 0.22551232E+02 0.72092264E+00 0.14480349E+01
#rwgt            1           7   1184.4984706524667         54217137    18417333           0
</event>
<event>
      6  10013  3.31628E+03  3.17060E+00 -1.00000E+00  2.89632E-01
       2    -1     0     0   511     0  0.000000000E+00  0.000000000E+00  7.203836742E+02  7.203836742E+02  0.000000000E+00  0.00000E+00  9.000E+00
      -2    -1     0     0     0   501  0.000000000E+00  0.000000000E+00 -3.082294449E-01  3.082294449E-01  0.000000000E+00  0.00000E+00  9.000E+00
      23     2     1     2     0     0 -1.419830177E+00 -2.834925506E+00  4.164100320E+02  4.170099391E+02  2.213417698E+01  0.00000E+00  9.000E+00
      13     1     3     3     0     0 -6.519175447E+00 -4.979908912E-01  3.801333486E+01  3.857165325E+01  1.056583668E-01  0.00000E+00  9.000E+00
     -13     1     3     3     0     0  5.099345270E+00 -2.336934615E+00  3.783966972E+02  3.784382858E+02  1.056583668E-01  0.00000E+00  9.000E+00
      21     1     1     2   511   501  1.419830177E+00  2.834925506E+00  3.036654127E+02  3.036819646E+02  5.394796609E-06  0.00000E+00  9.000E+00
#pdf   2 -2 0.63461451E-01 0.45680416E-04 0.22134177E+02 0.62817530E+00 0.28923649E+01
#rwgt            1           7   1267.8123565558078         54217137    18417413           0
</event>
<event>
      6  10013  3.31628E+03  1.10973E+01 -1.00000E+00  1.90616E-01
       2    -1     0     0   501     0  0.000000000E+00  0.000000000E+00  3.663003077E+00  3.663003077E+00  0.000000000E+00  0.00000E+00  9.000E+00
      21    -1     0     0   511   501  0.000000000E+00  0.000000000E+00 -1.329819091E+02  1.329819091E+02  0.000000000E+00  0.00000E+00  9.000E+00
      23     2     1     2     0     0  8.200118105E+00  7.477196058E+00 -5.791338401E+01  6.438220415E+01  2.584487890E+01  0.00000E+00  9.000E+00
      13     1     3     3     0     0 -1.409560326E+00  8.934006758E-02  2.441229122E+00  2.822340390E+00  1.056583668E-01  0.00000E+00  9.000E+00
     -13     1     3     3     0     0  9.609678431E+00  7.387855990E+00 -6.035461313E+01  6.155986376E+01  1.056583668E-01  0.00000E+00  9.000E+00
       2     1     1     2   511     0 -8.200118105E+00 -7.477196058E+00 -7.140552203E+01  7.226270804E+01  0.000000000E+00  0.00000E+00  9.000E+00
#pdf   2 -2 0.45723376E-03 0.86441841E-02 0.25844879E+02 0.15197950E+01 0.49689218E+00
#rwgt            1           7   630.27132303701637         54217137    18417548           0
</event>
<event>
      6  10013  3.31628E+03  2.79114E+01 -1.00000E+00  1.55213E-01
       2    -1     0     0   511     0  0.000000000E+00  0.000000000E+00  1.020608779E+03  1.020608779E+03  0.000000000E+00  0.00000E+00  9.000E+00
      -2    -1     0     0     0   501  0.000000000E+00  0.000000000E+00 -6.459177346E+00  6.459177346E+00  0.000000000E+00  0.00000E+00  9.000E+00
      23     2     1     2     0     0  1.816254382E+01 -2.119363753E+01  3.596912025E+02  3.720146421E+02  9.076389435E+01  0.00000E+00  9.000E+00
      13     1     3     3     0     0 -2.135767196E+01 -4.407960548E+01  1.711251384E+02  1.779971515E+02  1.056583668E-01  0.00000E+00  9.000E+00
     -13     1     3     3     0     0  3.952021578E+01  2.288596795E+01  1.885660641E+02  1.940174906E+02  1.056583668E-01  0.00000E+00  9.000E+00
      21     1     1     2   511   501 -1.816254382E+01  2.119363753E+01  6.544583987E+02  6.550533138E+02  7.629394531E-06  0.00000E+00  9.000E+00
#pdf   2 -2 0.53798735E-01 0.90608195E-03 0.90763894E+02 0.63082598E+00 0.15051546E+01
#rwgt            1           7   978.85185855887789         54217137    18417622           0
</event>
<event>
      6  10013  3.31628E+03  5.23653E+01 -1.00000E+00  1.37911E-01
      21    -1     0     0   511   501  0.000000000E+00  0.000000000E+00  1.052728062E+02  1.052728062E+02  0.000000000E+00  0.00000E+00  9.000E+00
       4    -1     0     0   501     0  0.000000000E+00  0.000000000E+00 -1.836897726E+02  1.836897726E+02  0.000000000E+00  0.00000E+00  9.000E+00
      23     2     1     2     0     0 -2.133402208E+01  4.782246872E+01 -1.603637496E+02  1.917133921E+02  9.107888624E+01  0.00000E+00  9.000E+00
      13     1     3     3     0     0 -1.368881425E+01  5.947663863E+01 -1.658583614E+02  1.767310425E+02  1.056583668E-01  0.00000E+00  9.000E+00
     -13     1     3     3     0     0 -7.645207831E+00 -1.165416991E+01  5.494611743E+00  1.498234965E+01  1.056583668E-01  0.00000E+00  9.000E+00
       4     1     1     2   511     0  2.133402208E+01 -4.782246872E+01  8.194678321E+01  9.724918658E+01  0.000000000E+00  0.00000E+00  9.000E+00
#pdf  -4  4 0.20906038E-02 0.23478858E-01 0.91078886E+02 0.83873310E+00 0.18286575E+00
#rwgt            1           2   146.78748574122400         54217137    18417681           0
</event>
<event>
      6  10013  3.31628E+03  6.26970E+00 -1.00000E+00  2.22470E-01
      21    -1     0     0   511   501  0.000000000E+00  0.000000000E+00  1.355583369E+02  1.355583369E+02  0.000000000E+00  0.00000E+00  9.000E+00
       4    -1     0     0   501     0  0.000000000E+00  0.000000000E+00 -1.528551215E+00  1.528551215E+00  0.000000000E+00  0.00000E+00  9.000E+00
      23     2     1     2     0     0  2.473573555E+00  5.761124055E+00  9.015857856E+01  9.276993954E+01  2.093760439E+01  0.00000E+00  9.000E+00
      13     1     3     3     0     0 -3.183448443E+00  8.924821139E+00  1.819308231E+01  2.051307349E+01  1.056583668E-01  0.00000E+00  9.000E+00
     -13     1     3     3     0     0  5.657021998E+00 -3.163697084E+00  7.196549626E+01  7.225686606E+01  1.056583668E-01  0.00000E+00  9.000E+00
       4     1     1     2   511     0 -2.473573555E+00 -5.761124055E+00  4.387120714E+01  4.431694859E+01  0.000000000E+00  0.00000E+00  9.000E+00
#pdf  -4  4 0.13480031E-01 0.19243160E-03 0.20937604E+02 0.22689610E+00 0.14300400E+01
#rwgt            1           2   408.37242265249398         54217137    18417804           0
</event>
<event>
      6  10013  3.31628E+03  1.56402E+01 -1.00000E+00  1.75644E-01
      21    -1     0     0   511   501  0.000000000E+00  0.000000000E+00  3.628912745E+01  3.628912745E+01  0.000000000E+00  0.00000E+00  9.000E+00
       5    -1     0     0   501     0  0.000000000E+00  0.000000000E+00 -7.865918589E+01  7.865918589E+01  0.000000000E+00  0.00000E+00  9.000E+00
      23     2     1     2     0     0  7.617215290E-01 -1.562161396E+01 -3.308877001E+01  9.676157759E+01  8.957299345E+01  0.00000E+00  9.000E+00
      13     1     3     3     0     0  2.252269738E+01  4.698635454E+00  2.345646345E+01  3.285674837E+01  1.056583668E-01  0.00000E+00  9.000E+00
     -13     1     3     3     0     0 -2.176097585E+01 -2.032024941E+01 -5.654523346E+01  6.390482922E+01  1.056583668E-01  0.00000E+00  9.000E+00
       5     1     1     2   511     0 -7.617215290E-01  1.562161396E+01 -9.281288430E+00  1.818673575E+01  0.000000000E+00  0.00000E+00  9.000E+00
#pdf  -5  5 0.48249096E-02 0.98396193E-02 0.89572993E+02 0.35867630E+00 0.22240390E+00
#rwgt            1           1   84.064573138691841         54217137    18417843           0
</event>
<event>
      6  10013  3.31628E+03  6.90131E+00 -1.00000E+00  2.16357E-01
      -2    -1     0     0     0   501  0.000000000E+00  0.000000000E+00  1.609330719E+01  1.609330719E+01  0.000000000E+00  0.00000E+00  9.000E+00
       2    -1     0     0   511     0  0.000000000E+00  0.000000000E+00 -1.511165807E+02  1.511165807E+02  0.000000000E+00  0.00000E+00  9.000E+00
      23     2     1     2     0     0  6.871471747E+00  6.410338015E-01 -1.189193133E+02  1.496894546E+02  9.065043680E+01  0.00000E+00  9.000E+00
      13     1     3     3     0     0 -1.616687412E+01  7.391841904E+00  8.728158715E+00  1.980401635E+01  1.056583668E-01  0.00000E+00  9.000E+00
     -13     1     3     3     0     0  2.303834587E+01 -6.750808102E+00 -1.276474720E+02  1.298854382E+02  1.056583668E-01  0.00000E+00  9.000E+00
      21     1     1     2   511   501 -6.871471747E+00 -6.410338015E-01 -1.610396022E+01  1.752043330E+01  0.000000000E+00  0.00000E+00  9.000E+00
#pdf  -2  2 0.23601043E-02 0.20602594E-01 0.90650437E+02 0.10190055E+01 0.67711363E+00
#rwgt            1           4   619.83260727619961         54217137    18418155           0
</event>
<event>
      6  10013  3.31628E+03  1.56419E+01 -1.00000E+00  1.75640E-01
       2    -1     0     0   501     0  0.000000000E+00  0.000000000E+00  1.691408526E+01  1.691408526E+01  0.000000000E+00  0.00000E+00  9.000E+00
      21    -1     0     0   511   501  0.000000000E+00  0.000000000E+00 -3.585853051E+02  3.585853051E+02  0.000000000E+00  0.00000E+00  9.000E+00
      23     2     1     2     0     0  1.483599859E+01 -4.955915206E+00 -1.106301284E+02  1.439294141E+02  9.073027608E+01  0.00000E+00  9.000E+00
      13     1     3     3     0     0 -1.301499576E+01  2.925088287E+01 -8.943024299E+01  9.498833501E+01  1.056583668E-01  0.00000E+00  9.000E+00
     -13     1     3     3     0     0  2.785099435E+01 -3.420679808E+01 -2.119988538E+01  4.894107911E+01  1.056583668E-01  0.00000E+00  9.000E+00
       2     1     1     2   511     0 -1.483599859E+01  4.955915206E+00 -2.310410914E+02  2.315699762E+02  0.000000000E+00  0.00000E+00  9.000E+00
#pdf   2 -2 0.25242458E-02 0.19296836E-01 0.90730276E+02 0.11124836E+01 0.36133652E+00
#rwgt            1           7   333.65556898702590         54217137    18418257           0
</event>
<event>
      6  10013  3.31628E+03  4.44496E+01 -1.00000E+00  1.42025E-01
      21    -1     0     0   501   511  0.000000000E+00  0.000000000E+00  1.081377860E+03  1.081377860E+03  0.000000000E+00  0.00000E+00  9.000E+00
      -3    -1     0     0     0   501  0.000000000E+00  0.000000000E+00 -7.061597398E+00  7.061597398E+00  0.000000000E+00  0.00000E+00  9.000E+00
      23     2     1     2     0     0  7.893741504E+00 -4.374307896E+01  4.017523635E+02  4.144083257E+02  9.139765165E+01  0.00000E+00  9.000E+00
      13     1     3     3     0     0  2.111212132E+01 -4.601629751E+01  9.750663774E+01  1.098670873E+02  1.056583668E-01  0.00000E+00  9.000E+00
     -13     1     3     3     0     0 -1.321837982E+01  2.273218552E+00  3.042457258E+02  3.045412384E+02  1.056583668E-01  0.00000E+00  9.000E+00
      -3     1     1     2     0   511 -7.893741504E+00  4.374307896E+01  6.725638994E+02  6.740311320E+02  0.000000000E+00  0.00000E+00  9.000E+00
#pdf   3 -3 0.56458838E-01 0.87549049E-03 0.91397652E+02 0.13228304E+00 0.14861414E+01
#rwgt            1           8   207.51788719347294         54217137    18418325           0
</event>
<event>
      6  10013  3.31628E+03  2.27671E+01 -1.00000E+00  1.61816E-01
       1    -1     0     0   501     0  0.000000000E+00  0.000000000E+00  6.732045343E+01  6.732045343E+01  0.000000000E+00  0.00000E+00  9.000E+00
      21    -1     0     0   511   501  0.000000000E+00  0.000000000E+00 -8.616382949E+01  8.616382949E+01  0.000000000E+00  0.00000E+00  9.000E+00
      23     2     1     2     0     0 -2.259730109E+01 -2.775753531E+00 -5.778657123E+01  1.083742477E+02  8.881073659E+01  0.00000E+00  9.000E+00
      13     1     3     3     0     0 -3.129649047E+01  3.483434543E+01 -5.089489378E+01  6.916070643E+01  1.056583668E-01  0.00000E+00  9.000E+00
     -13     1     3     3     0     0  8.699189381E+00 -3.761009896E+01 -6.891677454E+00  3.921354130E+01  1.056583668E-01  0.00000E+00  9.000E+00
       1     1     1     2   511     0  2.259730109E+01  2.775753531E+00  3.894319517E+01  4.511003519E+01  0.000000000E+00  0.00000E+00  9.000E+00
#pdf   1 -1 0.37694690E-02 0.12381238E-01 0.88810737E+02 0.92898096E+00 0.48614318E+00
#rwgt            1           6   438.64638054039250         54217137    18418391           0
</event>
<event>
      6  10013  3.31628E+03  5.05454E+01 -1.00000E+00  1.38779E-01
      21    -1     0     0   501   511  0.000000000E+00  0.000000000E+00  1.113240859E+01  1.113240859E+01  0.000000000E+00  0.00000E+00  9.000E+00
      -2    -1     0     0     0   501  0.000000000E+00  0.000000000E+00 -2.991056514E+02  2.991056514E+02  0.000000000E+00  0.00000E+00  9.000E+00
      23     2     1     2     0     0 -4.995512498E+01  7.701890327E+00 -2.077438905E+02  2.154141042E+02  2.628456971E+01  0.00000E+00  9.000E+00
      13     1     3     3     0     0  3.808657897E-01 -1.707313758E-01 -4.232299483E+01  4.232518474E+01  1.056583668E-01  0.00000E+00  9.000E+00
     -13     1     3     3     0     0 -5.033599077E+01  7.872621703E+00 -1.654208957E+02  1.730889194E+02  1.056583668E-01  0.00000E+00  9.000E+00
      -2     1     1     2     0   511  4.995512498E+01 -7.701890327E+00 -8.022935233E+01  9.482395585E+01  0.000000000E+00  0.00000E+00  9.000E+00
#pdf   2 -2 0.27221370E-03 0.15017757E-01 0.26284570E+02 0.17903592E+01 0.38420063E+00
#rwgt            1           7   760.48729207296617         54217137    18418424           0
</event>
<event>
      6  10013  3.31628E+03  9.15313E+00 -1.00000E+00  2.00246E-01
      -1    -1     0     0     0   501  0.000000000E+00  0.000000000E+00  1.106812213E+02  1.106812213E+02  0.000000000E+00  0.00000E+00  9.000E+00
      21    -1     0     0   501   511  0.000000000E+00  0.000000000E+00 -7.579244036E+01  7.579244036E+01  0.000000000E+00  0.00000E+00  9.000E+00
      23     2     1     2     0     0  7.232698598E+00  5.609626125E+00  8.872324051E+01  1.318666211E+02  9.712472658E+01  0.00000E+00  9.000E+00
      13     1     3     3     0     0  3.042492720E+00 -2.365520982E+01 -1.213845831E+01  2.676152177E+01  1.056583668E-01  0.00000E+00  9.000E+00
     -13     1     3     3     0     0  4.190205878E+00  2.926483594E+01  1.008616988E+02  1.051050993E+02  1.056583668E-01  0.00000E+00  9.000E+00
      -1     1     1     2     0   511 -7.232698598E+00 -5.609626125E+00 -5.383445962E+01  5.460704054E+01  0.000000000E+00  0.00000E+00  9.000E+00
#pdf  -1  1 0.16893598E-01 0.33040816E-02 0.97124727E+02 0.41613967E+00 0.98257031E+00
#rwgt            1           5   568.69347976650704         54217137    18418479           0
</event>
<event>
      6  10013  3.31628E+03  8.69870E+00 -1.00000E+00  2.02964E-01
       3    -1     0     0   501     0  0.000000000E+00  0.000000000E+00  3.302390201E+02  3.302390201E+02  0.000000000E+00  0.00000E+00  9.000E+00
      21    -1     0     0   511   501  0.000000000E+00  0.000000000E+00 -7.948571556E+00  7.948571556E+00  0.000000000E+00  0.00000E+00  9.000E+00
      23     2     1     2     0     0  7.869112705E+00  3.707344173E+00  3.113474107E+02  3.242084138E+02  8.999010008E+01  0.00000E+00  9.000E+00
      13     1     3     3     0     0  6.789811115E+00  3.610234328E+01  2.656779031E+02  2.682055929E+02  1.056583668E-01  0.00000E+00  9.000E+00
     -13     1     3     3     0     0  1.079301589E+00 -3.239499910E+01  4.566950757E+01  5.600282086E+01  1.056583668E-01  0.00000E+00  9.000E+00
       3     1     1     2   511     0 -7.869112705E+00 -3.707344173E+00  1.094303786E+01  1.397917784E+01  0.000000000E+00  0.00000E+00  9.000E+00
#pdf   3 -3 0.48662096E-01 0.98471817E-03 0.89990100E+02 0.15444451E+00 0.14142169E+01
#rwgt            1           8   301.86295017933463         54217137    18418520           0
</event>
<event>
      6  10013  3.31628E+03  6.50697E+00 -1.00000E+00  2.20062E-01
       1    -1     0     0   511     0  0.000000000E+00  0.000000000E+00  2.426262772E+02  2.426262772E+02  0.000000000E+00  0.00000E+00  9.000E+00
      -1    -1     0     0     0   501  0.000000000E+00  0.000000000E+00 -1.207847550E+01  1.207847550E+01  0.000000000E+00  0.00000E+00  9.000E+00
      23     2     1     2     0     0  2.564492833E-01 -6.501919001E+00  1.636344536E+02  1.874757644E+02  9.126109308E+01  0.00000E+00  9.000E+00
      13     1     3     3     0     0 -1.167045347E+01 -4.154492985E+01  1.316921262E+02  1.385821343E+02  1.056583668E-01  0.00000E+00  9.000E+00
     -13     1     3     3     0     0  1.192690275E+01  3.504301085E+01  3.194232740E+01  4.889363008E+01  1.056583668E-01  0.00000E+00  9.000E+00
      21     1     1     2   511   501 -2.564492833E-01  6.501919001E+00  6.691334804E+01  6.722898826E+01  9.536743164E-07  0.00000E+00  9.000E+00
#pdf   1 -1 0.26940086E-01 0.18293030E-02 0.91261093E+02 0.51504315E+00 0.11444481E+01
#rwgt            1           6   1021.6270823546155         54217137    18418585           0
</event>
<event>
      6  10013  3.31628E+03  5.64279E+01 -1.00000E+00  1.36116E-01
       2    -1     0     0   511     0  0.000000000E+00  0.000000000E+00  8.201150095E+02  8.201150095E+02  0.000000000E+00  0.00000E+00  9.000E+00
      -2    -1     0     0     0   501  0.000000000E+00  0.000000000E+00 -9.631206684E+00  9.631206684E+00  0.000000000E+00  0.00000E+00  9.000E+00
      23     2     1     2     0     0  3.265132123E+01  4.602170206E+01  3.548459182E+02  3.706275085E+02  9.091214751E+01  0.00000E+00  9.000E+00
      13     1     3     3     0     0  6.023345759E+01  4.800891966E+01  2.234538499E+02  2.363568488E+02  1.056583668E-01  0.00000E+00  9.000E+00
     -13     1     3     3     0     0 -2.758213637E+01 -1.987217607E+00  1.313920683E+02  1.342706597E+02  1.056583668E-01  0.00000E+00  9.000E+00
      21     1     1     2   511   501 -3.265132123E+01 -4.602170206E+01  4.556378846E+02  4.591187076E+02  0.000000000E+00  0.00000E+00  9.000E+00
#pdf   2 -2 0.47414801E-01 0.10314382E-02 0.90912148E+02 0.63474706E+00 0.14304501E+01
#rwgt            1           7   1002.3299989416989         54217137    18418681           0
</event>
<event>
      6  10013  3.31628E+03  1.10041E+01 -1.00000E+00  1.91017E-01
      21    -1     0     0   511   501  0.000000000E+00  0.000000000E+00  2.720245855E+00  2.720245855E+00  0.000000000E+00  0.00000E+00  9.000E+00
       2    -1     0     0   501     0  0.000000000E+00  0.000000000E+00 -1.242916577E+03  1.242916577E+03  0.000000000E+00  0.00000E+00  9.000E+00
      23     2     1     2     0     0 -7.473853949E-01 -1.097872686E+01 -1.209428317E+03  1.212960200E+03  9.183953476E+01  0.00000E+00  9.000E+00
      13     1     3     3     0     0 -1.877883040E+01 -1.940059574E+01 -1.149434301E+03  1.149751387E+03  1.056583668E-01  0.00000E+00  9.000E+00
     -13     1     3     3     0     0  1.803144500E+01  8.421868885E+00 -5.999401641E+01  6.320881310E+01  1.056583668E-01  0.00000E+00  9.000E+00
       2     1     1     2   511     0  7.473853949E-01  1.097872686E+01 -3.076801338E+01  3.267662277E+01  0.000000000E+00  0.00000E+00  9.000E+00
#pdf  -2  2 0.26975378E-03 0.18501422E+00 0.91839535E+02 0.23889550E+01 0.51076964E+00
#rwgt            1           4   2060.3226852070279         54217137    18418708           0
</event>
<event>
      6  10013  3.31628E+03  1.62192E+00 -1.00000E+00  4.11385E-01
      -2    -1     0     0     0   501  0.000000000E+00  0.000000000E+00  1.586787173E-01  1.586787173E-01  0.000000000E+00  0.00000E+00  9.000E+00
       2    -1     0     0   511     0  0.000000000E+00  0.000000000E+00 -1.067029955E+03  1.067029955E+03  0.000000000E+00  0.00000E+00  9.000E+00
      23     2     1     2     0     0  4.407149239E-01 -1.560900159E+00 -9.162687246E+02  9.165773486E+02  2.372824480E+01  0.00000E+00  9.000E+00
      13     1     3     3     0     0  4.127399986E+00 -2.555016745E+00 -3.910087268E+01  3.940117954E+01  1.056583668E-01  0.00000E+00  9.000E+00
     -13     1     3     3     0     0 -3.686685062E+00  9.941165861E-01 -8.771678520E+02  8.771761691E+02  1.056583668E-01  0.00000E+00  9.000E+00
      21     1     1     2   511   501 -4.407149239E-01  1.560900159E+00 -1.506025517E+02  1.506112851E+02  1.907348633E-06  0.00000E+00  9.000E+00
#pdf  -2  2 0.23685039E-04 0.14065994E+00 0.23728245E+02 0.36060673E+01 0.60169104E+00
#rwgt            1           4   3159.1007742253896         54217137    18418846           0
</event>
<event>
      6  10013  3.31628E+03  1.20784E+01 -1.00000E+00  1.86678E-01
       1    -1     0     0   501     0  0.000000000E+00  0.000000000E+00  2.040901672E+02  2.040901672E+02  0.000000000E+00  0.00000E+00  9.000E+00
      -1    -1     0     0     0   511  0.000000000E+00  0.000000000E+00 -2.490502182E+01  2.490502182E+01  0.000000000E+00  0.00000E+00  9.000E+00
      23     2     1     2     0     0 -1.186815763E+01  2.243825611E+00  1.910848205E+02  2.120396534E+02  9.111266685E+01  0.00000E+00  9.000E+00
      13     1     3     3     0     0 -8.357333015E+00  2.642198878E+01  1.847268547E+02  1.867939734E+02  1.056583668E-01  0.00000E+00  9.000E+00
     -13     1     3     3     0     0 -3.510824610E+00 -2.417816316E+01  6.357965833E+00  2.524567996E+01  1.056583668E-01  0.00000E+00  9.000E+00
      21     1     1     2   501   511  1.186815763E+01 -2.243825611E+00 -1.189967515E+01  1.695553560E+01  3.769728732E-07  0.00000E+00  9.000E+00
#pdf   1 -1 0.30740639E-01 0.15979306E-02 0.91112667E+02 0.49893111E+00 0.12087668E+01
#rwgt            1           6   863.97783228061166         54217137    18419038           0
</event>
<event>
      6  10013  3.31628E+03  6.64149E+00 -1.00000E+00  2.18758E-01
      21    -1     0     0   511   501  0.000000000E+00  0.000000000E+00  1.226053777E+01  1.226053777E+01  0.000000000E+00  0.00000E+00  9.000E+00
       2    -1     0     0   501     0  0.000000000E+00  0.000000000E+00 -5.997036600E+01  5.997036600E+01  0.000000000E+00  0.00000E+00  9.000E+00
      23     2     1     2     0     0  5.581685899E+00 -3.599198913E+00 -2.612232019E+01  4.964484715E+01  4.169083575E+01  0.00000E+00  9.000E+00
      13     1     3     3     0     0  2.022187412E+01 -3.626372193E+00 -1.001606423E+00  2.056913093E+01  1.056583668E-01  0.00000E+00  9.000E+00
     -13     1     3     3     0     0 -1.464018822E+01  2.717328034E-02 -2.512071377E+01  2.907571621E+01  1.056583668E-01  0.00000E+00  9.000E+00
       2     1     1     2   511     0 -5.581685899E+00  3.599198913E+00 -2.158750804E+01  2.258605662E+01  0.000000000E+00  0.00000E+00  9.000E+00
#pdf  -2  2 0.17868937E-02 0.57556687E-02 0.41690836E+02 0.10122831E+01 0.80556343E+00
#rwgt            1           4   1393.2244111702223         54217137    18419075           0
</event>
<event>
      6  10013  3.31628E+03  5.27187E+00 -1.00000E+00  2.34482E-01
      21    -1     0     0   511   501  0.000000000E+00  0.000000000E+00  1.696772591E+01  1.696772591E+01  0.000000000E+00  0.00000E+00  9.000E+00
       1    -1     0     0   501     0  0.000000000E+00  0.000000000E+00 -1.594313463E+02  1.594313463E+02  0.000000000E+00  0.00000E+00  9.000E+00
      23     2     1     2     0     0 -4.798885716E+00 -2.182495074E+00 -1.448742589E+02  1.706021966E+02  8.993756725E+01  0.00000E+00  9.000E+00
      13     1     3     3     0     0 -2.465357774E+01 -2.782682675E+01 -2.130799580E+01  4.285058962E+01  1.056583668E-01  0.00000E+00  9.000E+00
     -13     1     3     3     0     0  1.985469202E+01  2.564433168E+01 -1.235662631E+02  1.277516070E+02  1.056583668E-01  0.00000E+00  9.000E+00
       1     1     1     2   511     0  4.798885716E+00  2.182495074E+00  2.410638517E+00  5.796875617E+00  0.000000000E+00  0.00000E+00  9.000E+00
#pdf  -1  1 0.19756809E-02 0.24225836E-01 0.89937567E+02 0.11067956E+01 0.52850892E+00
#rwgt            1           5   674.52248868084712         54217137    18419166           0
</event>
<event>
      6  10013  3.31628E+03  7.73464E+00 -1.00000E+00  2.09537E-01
       2    -1     0     0   511     0  0.000000000E+00  0.000000000E+00  2.209973891E+01  2.209973891E+01  0.000000000E+00  0.00000E+00  9.000E+00
      -2    -1     0     0     0   501  0.000000000E+00  0.000000000E+00 -1.309771602E+02  1.309771602E+02  0.000000000E+00  0.00000E+00  9.000E+00
      23     2     1     2     0     0 -7.285923396E+00 -2.596138631E+00 -1.066220563E+02  1.450201450E+02  9.799364753E+01  0.00000E+00  9.000E+00
      13     1     3     3     0     0  3.220519478E+01  2.992065022E+01 -6.778911820E+01  8.079477452E+01  1.056583668E-01  0.00000E+00  9.000E+00
     -13     1     3     3     0     0 -3.949111817E+01 -3.251678885E+01 -3.883293813E+01  6.422537053E+01  1.056583668E-01  0.00000E+00  9.000E+00
      21     1     1     2   511   501  7.285923396E+00  2.596138631E+00 -2.255364993E+00  8.056754109E+00  5.960464478E-08  0.00000E+00  9.000E+00
#pdf   2 -2 0.29445412E-02 0.19297076E-01 0.97993648E+02 0.10686057E+01 0.36250304E+00
#rwgt            1           7   300.90438117252143         54217137    18419258           0
</event>
<event>
      6  10013  3.31628E+03  2.09080E+01 -1.00000E+00  1.64753E-01
      -2    -1     0     0     0   501  0.000000000E+00  0.000000000E+00  2.833123862E+02  2.833123862E+02  0.000000000E+00  0.00000E+00  9.000E+00
      21    -1     0     0   501   511  0.000000000E+00  0.000000000E+00 -1.160344151E+01  1.160344151E+01  0.000000000E+00  0.00000E+00  9.000E+00
      23     2     1     2     0     0  2.019617377E+01 -5.409171246E+00  1.969486731E+02  2.172869492E+02  8.937389940E+01  0.00000E+00  9.000E+00
      13     1     3     3     0     0  5.104773818E+01 -1.465186333E+01  1.583373545E+02  1.670068193E+02  1.056583668E-01  0.00000E+00  9.000E+00
     -13     1     3     3     0     0 -3.085156441E+01  9.242692084E+00  3.861131854E+01  5.028012994E+01  1.056583668E-01  0.00000E+00  9.000E+00
      -2     1     1     2     0   511 -2.019617377E+01  5.409171246E+00  7.476027164E+01  7.762887855E+01  0.000000000E+00  0.00000E+00  9.000E+00
#pdf  -2  2 0.31026587E-01 0.15233535E-02 0.89373899E+02 0.26446365E+00 0.13132504E+01
#rwgt            1           4   316.44765818444569         54217137    18419358           0
</event>
<event>
      6  10013  3.31628E+03  1.13421E+00 -1.00000E+00  5.67688E-01
      -1    -1     0     0     0   501  0.000000000E+00  0.000000000E+00  3.047014481E+01  3.047014481E+01  0.000000000E+00  0.00000E+00  9.000E+00
       1    -1     0     0   511     0  0.000000000E+00  0.000000000E+00 -6.628808686E+01  6.628808686E+01  0.000000000E+00  0.00000E+00  9.000E+00
      23     2     1     2     0     0 -6.405057323E-01  9.360502622E-01 -3.513145439E+01  9.543244775E+01  8.872342734E+01  0.00000E+00  9.000E+00
      13     1     3     3     0     0 -3.494251873E+01 -1.827486857E+01 -3.957448188E+01  5.586681677E+01  1.056583668E-01  0.00000E+00  9.000E+00
     -13     1     3     3     0     0  3.430201300E+01  1.921091883E+01  4.443027485E+00  3.956563098E+01  1.056583668E-01  0.00000E+00  9.000E+00
      21     1     1     2   511   501  6.405057323E-01 -9.360502622E-01 -6.864876632E-01  1.325783918E+00  2.471078031E-08  0.00000E+00  9.000E+00
#pdf  -1  1 0.46381590E-02 0.10042557E-01 0.88723427E+02 0.76943596E+00 0.67345634E+00
#rwgt            1           5   683.53485139132965         54217137    18419446           0
</event>
<event>
      6  10013  3.31628E+03  8.77162E+00 -1.00000E+00  2.02513E-01
      21    -1     0     0   511   501  0.000000000E+00  0.000000000E+00  6.402036210E+01  6.402036210E+01  0.000000000E+00  0.00000E+00  9.000E+00
       3    -1     0     0   501     0  0.000000000E+00  0.000000000E+00 -5.493412720E+01  5.493412720E+01  0.000000000E+00  0.00000E+00  9.000E+00
      23     2     1     2     0     0 -4.531214386E+00 -7.510625128E+00 -5.232977518E+01  5.691524618E+01  2.059122346E+01  0.00000E+00  9.000E+00
      13     1     3     3     0     0 -9.745961985E-01 -8.053193491E+00 -5.173596643E+00  9.621903609E+00  1.056583668E-01  0.00000E+00  9.000E+00
     -13     1     3     3     0     0 -3.556618188E+00  5.425683629E-01 -4.715617854E+01  4.729334257E+01  1.056583668E-01  0.00000E+00  9.000E+00
       3     1     1     2   511     0  4.531214386E+00  7.510625128E+00  6.141601008E+01  6.203924313E+01  0.000000000E+00  0.00000E+00  9.000E+00
#pdf  -3  3 0.32451139E-03 0.77312132E-02 0.20591223E+02 0.14955126E+01 0.47293698E+00
#rwgt            1           3   103.43977935509855         54217137    18419751           0
</event>
<event>
      6  10013  3.31628E+03  6.00366E+01 -1.00000E+00  1.34662E-01
      21    -1     0     0   511   501  0.000000000E+00  0.000000000E+00  1.959120144E+00  1.959120144E+00  0.000000000E+00  0.00000E+00  9.000E+00
       2    -1     0     0   501     0  0.000000000E+00  0.000000000E+00 -2.350040476E+03  2.350040476E+03  0.000000000E+00  0.00000E+00  9.000E+00
      23     2     1     2     0     0 -2.303413515E+01 -5.544210852E+01 -1.411183353E+03  1.413179983E+03  4.510885739E+01  0.00000E+00  9.000E+00
      13     1     3     3     0     0 -3.029206746E+01 -5.892277682E+01 -1.311350054E+03  1.313022650E+03  1.056583668E-01  0.00000E+00  9.000E+00
     -13     1     3     3     0     0  7.257932307E+00  3.480668304E+00 -9.983329894E+01  1.001573331E+02  1.056583668E-01  0.00000E+00  9.000E+00
       2     1     1     2   511     0  2.303413515E+01  5.544210852E+01 -9.368980023E+02  9.388196129E+02  0.000000000E+00  0.00000E+00  9.000E+00
#pdf  -2  2 0.92258621E-04 0.13050585E+00 0.45108857E+02 0.29200385E+01 0.59227778E+00
#rwgt            1           4   2305.6885175976272         54217137    18419788           0
</event>
<event>
      6  10013  3.31628E+03  3.08796E+01 -1.00000E+00  1.52139E-01
      -2    -1     0     0     0   511  0.000000000E+00  0.000000000E+00  2.222469622E+01  2.222469622E+01  0.000000000E+00  0.00000E+00  9.000E+00
       2    -1     0     0   501     0  0.000000000E+00  0.000000000E+00 -1.820202914E+02  1.820202914E+02  0.000000000E+00  0.00000E+00  9.000E+00
      23     2     1     2     0     0  1.141272725E+01  2.869322567E+01 -1.271257436E+02  1.592908917E+02  9.087949125E+01  0.00000E+00  9.000E+00
      13     1     3     3     0     0 -2.002089266E+01 -2.590995259E+01 -3.830054188E+01  5.038952727E+01  1.056583668E-01  0.00000E+00  9.000E+00
     -13     1     3     3     0     0  3.143361992E+01  5.460317826E+01 -8.882520174E+01  1.089013644E+02  1.056583668E-01  0.00000E+00  9.000E+00
      21     1     1     2   501   511 -1.141272725E+01 -2.869322567E+01 -3.266985156E+01  4.495409596E+01  4.768371582E-07  0.00000E+00  9.000E+00
#pdf  -2  2 0.23426974E-02 0.20860700E-01 0.90879491E+02 0.10225491E+01 0.67618251E+00
#rwgt            1           4   810.71390864150294         54217137    18419830           0
</event>
<event>
      6  10013  3.31628E+03  1.09730E+02 -1.00000E+00  1.22019E-01
       3    -1     0     0   501     0  0.000000000E+00  0.000000000E+00  1.003925992E+02  1.003925992E+02  0.000000000E+00  0.00000E+00  9.000E+00
      21    -1     0     0   511   501  0.000000000E+00  0.000000000E+00 -1.806273022E+02  1.806273022E+02  0.000000000E+00  0.00000E+00  9.000E+00
      23     2     1     2     0     0  1.080171177E+02 -1.931142640E+01 -9.413960461E+01  1.704125997E+02  9.020842575E+01  0.00000E+00  9.000E+00
      13     1     3     3     0     0  8.986813531E+01 -4.987197699E+01 -8.584590787E+01  1.339142520E+02  1.056583668E-01  0.00000E+00  9.000E+00
     -13     1     3     3     0     0  1.814898236E+01  3.056055058E+01 -8.293696736E+00  3.649834766E+01  1.056583668E-01  0.00000E+00  9.000E+00
       3     1     1     2   511     0 -1.080171177E+02  1.931142640E+01  1.390490160E+01  1.106073017E+02  0.000000000E+00  0.00000E+00  9.000E+00
#pdf   3 -3 0.37259194E-02 0.12923318E-01 0.90208426E+02 0.80158068E+00 0.42190633E+00
#rwgt            1           8   369.34514215393943         54217137    18419886           0
</event>
<event>
      6  10013  3.31628E+03  8.48953E+01 -1.00000E+00  1.27089E-01
      -5    -1     0     0     0   501  0.000000000E+00  0.000000000E+00  1.215111509E+01  1.215111509E+01  0.000000000E+00  0.00000E+00  9.000E+00
       5    -1     0     0   511     0  0.000000000E+00  0.000000000E+00 -1.044403542E+03  1.044403542E+03  0.000000000E+00  0.00000E+00  9.000E+00
      23     2     1     2     0     0  5.232634898E+01 -6.685178785E+01 -4.153417613E+02  4.338300168E+02  9.215474174E+01  0.00000E+00  9.000E+00
      13     1     3     3     0     0 -9.503850121E-01  1.358963091E+01 -1.646410314E+02  1.652036976E+02  1.056583668E-01  0.00000E+00  9.000E+00
     -13     1     3     3     0     0  5.327673399E+01 -8.044141875E+01 -2.507007299E+02  2.686263192E+02  1.056583668E-01  0.00000E+00  9.000E+00
      21     1     1     2   511   501 -5.232634898E+01  6.685178785E+01 -6.169106659E+02  6.227246407E+02  7.629394531E-06  0.00000E+00  9.000E+00
#pdf  -5  5 0.10459828E-02 0.48042339E-01 0.92154742E+02 0.83638175E+00 0.50740660E-01
#rwgt            1           1   61.110324058866375         54217137    18419913           0
</event>
<event>
      6  10013  3.31628E+03  2.10281E+01 -1.00000E+00  1.64552E-01
      21    -1     0     0   511   501  0.000000000E+00  0.000000000E+00  3.210694893E+01  3.210694893E+01  0.000000000E+00  0.00000E+00  9.000E+00
       2    -1     0     0   501     0  0.000000000E+00  0.000000000E+00 -1.918696551E+02  1.918696551E+02  0.000000000E+00  0.00000E+00  9.000E+00
      23     2     1     2     0     0  9.966549591E+00  1.851618394E+01 -1.746996084E+02  1.981833447E+02  9.118390091E+01  0.00000E+00  9.000E+00
      13     1     3     3     0     0  3.405164758E+01 -1.842959627E+01 -1.289481325E+02  1.346357931E+02  1.056583668E-01  0.00000E+00  9.000E+00
     -13     1     3     3     0     0 -2.408509799E+01  3.694578020E+01 -4.575147584E+01  6.354755168E+01  1.056583668E-01  0.00000E+00  9.000E+00
       2     1     1     2   511     0 -9.966549591E+00 -1.851618394E+01  1.493690219E+01  2.579325930E+01  0.000000000E+00  0.00000E+00  9.000E+00
#pdf  -2  2 0.17602411E-02 0.27949721E-01 0.91183901E+02 0.11528727E+01 0.65655163E+00
#rwgt            1           4   800.90146454349588         54217137    18419999           0
</event>
<event>
      6  10013  3.31628E+03  8.76588E+00 -1.00000E+00  2.02548E-01
       3    -1     0     0   501     0  0.000000000E+00  0.000000000E+00  2.101285688E+01  2.101285688E+01  0.000000000E+00  0.00000E+00  9.000E+00
      21    -1     0     0   511   501  0.000000000E+00  0.000000000E+00 -1.390110394E+02  1.390110394E+02  0.000000000E+00  0.00000E+00  9.000E+00
      23     2     1     2     0     0 -7.781714856E+00  4.035534002E+00 -8.009237261E+01  1.211177137E+02  9.043158624E+01  0.00000E+00  9.000E+00
      13     1     3     3     0     0 -4.015990905E+01 -3.242230906E+00 -7.067655148E+00  4.090590751E+01  1.056583668E-01  0.00000E+00  9.000E+00
     -13     1     3     3     0     0  3.237819420E+01  7.277764908E+00 -7.302471746E+01  8.021180615E+01  1.056583668E-01  0.00000E+00  9.000E+00
       3     1     1     2   511     0  7.781714856E+00 -4.035534002E+00 -3.790580996E+01  3.890618266E+01  0.000000000E+00  0.00000E+00  9.000E+00
#pdf   3 -3 0.31410730E-02 0.15405492E-01 0.90431586E+02 0.86663550E+00 0.37928413E+00
#rwgt            1           8   456.73255525057152         54217137    18420080           0
</event>
<event>
      6  10013  3.31628E+03  1.47284E+01 -1.00000E+00  1.78087E-01
      -3    -1     0     0     0   501  0.000000000E+00  0.000000000E+00  7.756351701E+00  7.756351701E+00  0.000000000E+00  0.00000E+00  9.000E+00
      21    -1     0     0   501   511  0.000000000E+00  0.000000000E+00 -1.153278916E+02  1.153278916E+02  0.000000000E+00  0.00000E+00  9.000E+00
      23     2     1     2     0     0 -1.462846791E+01  1.712753863E+00 -2.853511656E+01  4.268721716E+01  2.812507835E+01  0.00000E+00  9.000E+00
      13     1     3     3     0     0 -1.230589371E+00  1.305086690E+01 -1.782244194E+01  2.212442265E+01  1.056583668E-01  0.00000E+00  9.000E+00
     -13     1     3     3     0     0 -1.339787854E+01 -1.133811304E+01 -1.071267462E+01  2.056279451E+01  1.056583668E-01  0.00000E+00  9.000E+00
      -3     1     1     2     0   511  1.462846791E+01 -1.712753863E+00 -7.903642333E+01  8.039702614E+01  0.000000000E+00  0.00000E+00  9.000E+00
#pdf  -3  3 0.96439010E-03 0.48534218E-02 0.28125078E+02 0.11299537E+01 0.60778177E+00
#rwgt            1           3   128.83372485311617         54217137    18420188           0
</event>
<event>
      6  10013  3.31628E+03  7.96961E+00 -1.00000E+00  2.07821E-01
      -1    -1     0     0     0   511  0.000000000E+00  0.000000000E+00  9.930691309E+00  9.930691309E+00  0.000000000E+00  0.00000E+00  9.000E+00
       1    -1     0     0   501     0  0.000000000E+00  0.000000000E+00 -2.686834503E+02  2.686834503E+02  0.000000000E+00  0.00000E+00  9.000E+00
      23     2     1     2     0     0 -5.126234199E+00  6.102158457E+00 -2.523865074E+02  2.684139566E+02  9.101422064E+01  0.00000E+00  9.000E+00
      13     1     3     3     0     0  1.521475853E+01 -3.091292125E+01 -4.449461406E+01  5.627503373E+01  1.056583668E-01  0.00000E+00  9.000E+00
     -13     1     3     3     0     0 -2.034099272E+01  3.701507971E+01 -2.078918934E+02  2.121389229E+02  1.056583668E-01  0.00000E+00  9.000E+00
      21     1     1     2   501   511  5.126234199E+00 -6.102158457E+00 -6.366251551E+00  1.020018498E+01  1.685873940E-07  0.00000E+00  9.000E+00
#pdf  -1  1 0.12281811E-02 0.39908865E-01 0.91014221E+02 0.13427455E+01 0.46914112E+00
#rwgt            1           5   648.97228180940317         54217137    18420245           0
</event>
<event>
      6  10013  3.31628E+03  3.66478E+00 -1.00000E+00  2.72644E-01
      21    -1     0     0   511   501  0.000000000E+00  0.000000000E+00  3.337377864E-01  3.337377864E-01  0.000000000E+00  0.00000E+00  9.000E+00
       2    -1     0     0   501     0  0.000000000E+00  0.000000000E+00 -1.989399058E+03  1.989399058E+03  0.000000000E+00  0.00000E+00  9.000E+00
      23     2     1     2     0     0 -3.656105489E+00 -2.520495089E-01 -1.877045199E+03  1.877652743E+03  4.762052323E+01  0.00000E+00  9.000E+00
      13     1     3     3     0     0  9.815404126E-01 -2.295695850E+01 -1.176448971E+03  1.176673353E+03  1.056583668E-01  0.00000E+00  9.000E+00
     -13     1     3     3     0     0 -4.637645901E+00  2.270490899E+01 -7.005962277E+02  7.009793907E+02  1.056583668E-01  0.00000E+00  9.000E+00
       2     1     1     2   511     0  3.656105489E+00  2.520495089E-01 -1.120201208E+02  1.120800522E+02  0.000000000E+00  0.00000E+00  9.000E+00
#pdf  -2  2 0.46596387E-04 0.28797142E+00 0.47620523E+02 0.37066126E+01 0.38733387E+00
#rwgt            1           4   4022.2662641907050         54217137    18420374           0
</event>
<event>
      6  10013  3.31628E+03  1.87003E+01 -1.00000E+00  1.68770E-01
       1    -1     0     0   501     0  0.000000000E+00  0.000000000E+00  1.594334936E+02  1.594334936E+02  0.000000000E+00  0.00000E+00  9.000E+00
      21    -1     0     0   511   501  0.000000000E+00  0.000000000E+00 -1.947493530E+01  1.947493530E+01  0.000000000E+00  0.00000E+00  9.000E+00
      23     2     1     2     0     0  1.660784249E+01 -8.595401513E+00  1.202376499E+02  1.517309458E+02  9.063931875E+01  0.00000E+00  9.000E+00
      13     1     3     3     0     0 -2.607271931E+01  8.715141939E+00  9.564806865E+01  9.952037275E+01  1.056583668E-01  0.00000E+00  9.000E+00
     -13     1     3     3     0     0  4.268056180E+01 -1.731054345E+01  2.458958124E+01  5.221057306E+01  1.056583668E-01  0.00000E+00  9.000E+00
       1     1     1     2   511     0 -1.660784249E+01  8.595401513E+00  1.972090839E+01  2.717748308E+01  0.000000000E+00  0.00000E+00  9.000E+00
#pdf   1 -1 0.20489134E-01 0.23725914E-02 0.90639319E+02 0.55155793E+00 0.10273695E+01
#rwgt            1           6   910.71718967146785         54217137    18420513           0
</event>
<event>
      6  10013  3.31628E+03  7.37605E+00 -1.00000E+00  2.12322E-01
      21    -1     0     0   511   501  0.000000000E+00  0.000000000E+00  1.392815862E+02  1.392815862E+02  0.000000000E+00  0.00000E+00  9.000E+00
       4    -1     0     0   501     0  0.000000000E+00  0.000000000E+00 -1.049514976E+01  1.049514976E+01  0.000000000E+00  0.00000E+00  9.000E+00
      23     2     1     2     0     0 -1.846370175E+00 -7.141217461E+00  5.507841627E+01  7.570057038E+01  5.140562564E+01  0.00000E+00  9.000E+00
      13     1     3     3     0     0 -2.024299843E+01 -1.026925832E+01  5.206482567E+01  5.679783347E+01  1.056583668E-01  0.00000E+00  9.000E+00
     -13     1     3     3     0     0  1.839662825E+01  3.128040856E+00  3.013590604E+00  1.890273691E+01  1.056583668E-01  0.00000E+00  9.000E+00
       4     1     1     2   511     0  1.846370175E+00  7.141217461E+00  7.370802012E+01  7.407616553E+01  0.000000000E+00  0.00000E+00  9.000E+00
#pdf  -4  4 0.99579345E-02 0.15702374E-02 0.51405626E+02 0.32416129E+00 0.85262129E+00
#rwgt            1           2   612.80775648275164         54217137    18420546           0
</event>
<event>
      6  10013  3.31628E+03  1.07987E+01 -1.00000E+00  1.91921E-01
      -3    -1     0     0     0   501  0.000000000E+00  0.000000000E+00  2.397678804E+02  2.397678804E+02  0.000000000E+00  0.00000E+00  9.000E+00
       3    -1     0     0   511     0  0.000000000E+00  0.000000000E+00 -1.379598004E+00  1.379598004E+00  0.000000000E+00  0.00000E+00  9.000E+00
      23     2     1     2     0     0 -9.198612896E+00  5.656552735E+00  1.775795298E+02  1.793873338E+02  2.299380480E+01  0.00000E+00  9.000E+00
      13     1     3     3     0     0 -6.016669747E-01  1.261881628E+01  6.165160186E+01  6.293272363E+01  1.056583668E-01  0.00000E+00  9.000E+00
     -13     1     3     3     0     0 -8.596945922E+00 -6.962263542E+00  1.159279279E+02  1.164546102E+02  1.056583668E-01  0.00000E+00  9.000E+00
      21     1     1     2   511   501  9.198612896E+00 -5.656552735E+00  6.080875256E+01  6.176014456E+01  1.168007728E-06  0.00000E+00  9.000E+00
#pdf  -3  3 0.24854542E-01 0.12587202E-03 0.22993805E+02 0.25599573E+00 0.20885565E+01
#rwgt            1           3   107.51838248665408         54217137    18420626           0
</event>
<event>
      6  10013  3.31628E+03  1.35852E+01 -1.00000E+00  1.81485E-01
      -1    -1     0     0     0   501  0.000000000E+00  0.000000000E+00  2.219338952E+00  2.219338952E+00  0.000000000E+00  0.00000E+00  9.000E+00
       1    -1     0     0   511     0  0.000000000E+00  0.000000000E+00 -1.258588457E+03  1.258588457E+03  0.000000000E+00  0.00000E+00  9.000E+00
      23     2     1     2     0     0  1.299045491E+01 -3.975511342E+00 -1.075107415E+03  1.079037717E+03  9.100485879E+01  0.00000E+00  9.000E+00
      13     1     3     3     0     0 -2.678143506E+01  2.845449887E+01 -3.674050721E+02  3.694772008E+02  1.056583668E-01  0.00000E+00  9.000E+00
     -13     1     3     3     0     0  3.977188997E+01 -3.243001021E+01 -7.077023434E+02  7.095605166E+02  1.056583668E-01  0.00000E+00  9.000E+00
      21     1     1     2   511   501 -1.299045491E+01  3.975511342E+00 -1.812617031E+02  1.817700790E+02  0.000000000E+00  0.00000E+00  9.000E+00
#pdf  -1  1 0.29901757E-03 0.16388747E+00 0.91004859E+02 0.23008155E+01 0.27502490E+00
#rwgt            1           5   917.86533419143848         54217137    18420692           0
</event>
<event>
      6  10013  3.31628E+03  8.43873E+00 -1.00000E+00  2.04620E-01
       1    -1     0     0   501     0  0.000000000E+00  0.000000000E+00  1.615323282E+01  1.615323282E+01  0.000000000E+00  0.00000E+00  9.000E+00
      21    -1     0     0   511   501  0.000000000E+00  0.000000000E+00 -1.528391963E+02  1.528391963E+02  0.000000000E+00  0.00000E+00  9.000E+00
      23     2     1     2     0     0  6.145138284E+00  5.783542522E+00 -1.214000159E+02  1.515318368E+02  9.029242289E+01  0.00000E+00  9.000E+00
      13     1     3     3     0     0 -1.183765308E+01 -3.807488682E+01 -3.533636691E+01  5.327754712E+01  1.056583668E-01  0.00000E+00  9.000E+00
     -13     1     3     3     0     0  1.798279137E+01  4.385842935E+01 -8.606364897E+01  9.825428972E+01  1.056583668E-01  0.00000E+00  9.000E+00
       1     1     1     2   511     0 -6.145138284E+00 -5.783542522E+00 -1.528594761E+01  1.746059228E+01  0.000000000E+00  0.00000E+00  9.000E+00
#pdf   1 -1 0.23077754E-02 0.20903662E-01 0.90292423E+02 0.11070357E+01 0.36958220E+00
#rwgt            1           6   553.51201397167779         54217137    18420763           0
</event>
<event>
      6  10013 -3.31628E+03  9.85001E+00 -1.00000E+00  1.96460E-01
       1    -1     0     0   501     0  0.000000000E+00  0.000000000E+00  3.617508064E+00  3.617508064E+00  0.000000000E+00  0.00000E+00  9.000E+00
      21    -1     0     0   511   501  0.000000000E+00  0.000000000E+00 -9.721454358E+01  9.721454358E+01  0.000000000E+00  0.00000E+00  9.000E+00
      23     2     1     2     0     0  9.309426476E+00 -3.218268037E+00 -8.233691329E+01  8.587166986E+01  2.230591233E+01  0.00000E+00  9.000E+00
      13     1     3     3     0     0  7.409494502E-01  6.094557866E-01  1.350329342E+00  1.659817901E+00  1.056583668E-01  0.00000E+00  9.000E+00
     -13     1     3     3     0     0  8.568477026E+00 -3.827723823E+00 -8.368724263E+01  8.421185196E+01  1.056583668E-01  0.00000E+00  9.000E+00
       1     1     1     2   511     0 -9.309426476E+00  3.218268037E+00 -1.126012223E+01  1.496038178E+01  0.000000000E+00  0.00000E+00  9.000E+00
#pdf   1 -1 0.24873238E-03 0.11836436E-01 0.22305912E+02 0.17477094E+01 0.44318848E+00
#rwgt            1           6  -267.65638867281098         54217137    18420920           0
</event>
<event>
      6  10013  3.31628E+03  6.80501E+00 -1.00000E+00  2.17230E-01
       2    -1     0     0   511     0  0.000000000E+00  0.000000000E+00  3.747138346E+00  3.747138346E+00  0.000000000E+00  0.00000E+00  9.000E+00
      -2    -1     0     0     0   501  0.000000000E+00  0.000000000E+00 -1.874851034E+02  1.874851034E+02  0.000000000E+00  0.00000E+00  9.000E+00
      23     2     1     2     0     0 -6.804827976E+00  5.036851746E-02 -1.828020634E+02  1.843631710E+02  2.295378437E+01  0.00000E+00  9.000E+00
      13     1     3     3     0     0 -7.822077351E+00 -1.067082563E+00 -1.927799080E+01  2.083208229E+01  1.056583668E-01  0.00000E+00  9.000E+00
     -13     1     3     3     0     0  1.017249376E+00  1.117451080E+00 -1.635240726E+02  1.635310887E+02  1.056583668E-01  0.00000E+00  9.000E+00
      21     1     1     2   511   501  6.804827976E+00 -5.036851746E-02 -9.359016330E-01  6.869070726E+00  2.245086308E-07  0.00000E+00  9.000E+00
#pdf   2 -2 0.11513214E-03 0.27078544E-01 0.22953784E+02 0.22323951E+01 0.27599664E+00
#rwgt            1           7   610.99867727163030         54217137    18421020           0
</event>
<event>
      6  10013  3.31628E+03  1.46127E+00 -1.00000E+00  4.53427E-01
       2    -1     0     0   501     0  0.000000000E+00  0.000000000E+00  7.463770787E+02  7.463770787E+02  0.000000000E+00  0.00000E+00  9.000E+00
      -2    -1     0     0     0   511  0.000000000E+00  0.000000000E+00 -3.495899280E+00  3.495899280E+00  0.000000000E+00  0.00000E+00  9.000E+00
      23     2     1     2     0     0  9.914873751E-02 -1.457906340E+00  7.423112277E+02  7.483044862E+02  9.450666670E+01  0.00000E+00  9.000E+00
      13     1     3     3     0     0 -2.166496141E+01 -2.150621059E+01  6.621940014E+02  6.628972728E+02  1.056583668E-01  0.00000E+00  9.000E+00
     -13     1     3     3     0     0  2.176411015E+01  2.004830425E+01  8.011722630E+01  8.540721344E+01  1.056583668E-01  0.00000E+00  9.000E+00
      21     1     1     2   501   511 -9.914873751E-02  1.457906340E+00  5.699517350E-01  1.568491743E+00  8.909598547E-08  0.00000E+00  9.000E+00
#pdf   2 -2 0.11464904E+00 0.46096479E-03 0.94506667E+02 0.58956711E+00 0.19671091E+01
#rwgt            1           7   1770.0591633510744         54217137    18421083           0
</event>
<event>
      6  10013  3.31628E+03  3.45315E+01 -1.00000E+00  1.48881E-01
      -1    -1     0     0     0   501  0.000000000E+00  0.000000000E+00  6.100746054E+02  6.100746054E+02  0.000000000E+00  0.00000E+00  9.000E+00
       1    -1     0     0   511     0  0.000000000E+00  0.000000000E+00 -6.031090764E+00  6.031090764E+00  0.000000000E+00  0.00000E+00  9.000E+00
      23     2     1     2     0     0 -7.357829582E+00  3.373845669E+01  4.748194526E+02  4.823474092E+02  7.754411326E+01  0.00000E+00  9.000E+00
      13     1     3     3     0     0  6.243090691E+00  5.665878530E+01  3.592849684E+02  3.637786329E+02  1.056583668E-01  0.00000E+00  9.000E+00
     -13     1     3     3     0     0 -1.360092027E+01 -2.292032861E+01  1.155344842E+02  1.185687762E+02  1.056583668E-01  0.00000E+00  9.000E+00
      21     1     1     2   511   501  7.357829582E+00 -3.373845669E+01  1.292240620E+02  1.337582869E+02  2.697398305E-06  0.00000E+00  9.000E+00
#pdf  -1  1 0.67260603E-01 0.52899335E-03 0.77544113E+02 0.17015409E+00 0.18363425E+01
#rwgt            1           5   351.48884636989459         54217137    18421274           0
</event>
<event>
      6  10013  3.31628E+03  1.06820E+01 -1.00000E+00  1.92446E-01
       2    -1     0     0   501     0  0.000000000E+00  0.000000000E+00  8.276205841E+02  8.276205841E+02  0.000000000E+00  0.00000E+00  9.000E+00
      21    -1     0     0   511   501  0.000000000E+00  0.000000000E+00 -3.431865376E+00  3.431865376E+00  0.000000000E+00  0.00000E+00  9.000E+00
      23     2     1     2     0     0  2.387331043E+00  1.041179287E+01  7.798369393E+02  7.854324416E+02  9.297507002E+01  0.00000E+00  9.000E+00
      13     1     3     3     0     0 -3.146341915E+01  2.797551653E+01  6.060358100E+02  6.074964942E+02  1.056583668E-01  0.00000E+00  9.000E+00
     -13     1     3     3     0     0  3.385075019E+01 -1.756372366E+01  1.738011293E+02  1.779359475E+02  1.056583668E-01  0.00000E+00  9.000E+00
       2     1     1     2   511     0 -2.387331043E+00 -1.041179287E+01  4.435177943E+01  4.562000788E+01  0.000000000E+00  0.00000E+00  9.000E+00
#pdf   2 -2 0.11961845E+00 0.42761030E-03 0.92975070E+02 0.58537717E+00 0.20175304E+01
#rwgt            1           7   1613.9054058943811         54217137    18421340           0
</event>
<event>
      6  10013  3.31628E+03  6.62900E+00 -1.00000E+00  2.18878E-01
       3    -1     0     0   501     0  0.000000000E+00  0.000000000E+00  6.238132531E+02  6.238132531E+02  0.000000000E+00  0.00000E+00  9.000E+00
      -3    -1     0     0     0   511  0.000000000E+00  0.000000000E+00 -6.034719688E+00  6.034719688E+00  0.000000000E+00  0.00000E+00  9.000E+00
      23     2     1     2     0     0  6.595972752E+00 -6.608513540E-01  6.162288935E+02  6.230402591E+02  9.163608291E+01  0.00000E+00  9.000E+00
      13     1     3     3     0     0  3.452122746E+01  2.041367203E+01  5.013676176E+02  5.029691166E+02  1.056583668E-01  0.00000E+00  9.000E+00
     -13     1     3     3     0     0 -2.792525471E+01 -2.107452338E+01  1.148612759E+02  1.200711425E+02  1.056583668E-01  0.00000E+00  9.000E+00
      21     1     1     2   501   511 -6.595972752E+00  6.608513540E-01  1.549639838E+00  6.807713617E+00  1.562846971E-07  0.00000E+00  9.000E+00
#pdf   3 -3 0.95079938E-01 0.52258560E-03 0.91636083E+02 0.68259811E-01 0.18191303E+01
#rwgt            1           8   204.05555709482888         54217137    18421515           0
</event>
<event>
      6  10013  3.31628E+03  4.08448E+00 -1.00000E+00  2.61243E-01
      -2    -1     0     0     0   501  0.000000000E+00  0.000000000E+00  2.334971072E+03  2.334971072E+03  0.000000000E+00  0.00000E+00  9.000E+00
      21    -1     0     0   501   511  0.000000000E+00  0.000000000E+00 -1.058983216E+00  1.058983216E+00  0.000000000E+00  0.00000E+00  9.000E+00
      23     2     1     2     0     0  3.651541134E+00 -1.830092329E+00  2.309737065E+03  2.311512413E+03  9.048560323E+01  0.00000E+00  9.000E+00
      13     1     3     3     0     0 -2.856195768E+01  1.480257812E+01  1.872060002E+03  1.872336391E+03  1.056583668E-01  0.00000E+00  9.000E+00
     -13     1     3     3     0     0  3.221349882E+01 -1.663267044E+01  4.376770636E+02  4.391760221E+02  1.056583668E-01  0.00000E+00  9.000E+00
      -2     1     1     2     0   511 -3.651541134E+00  1.830092329E+00  2.417502409E+01  2.451764222E+01  0.000000000E+00  0.00000E+00  9.000E+00
#pdf  -2  2 0.35511912E+00 0.13642633E-03 0.90485603E+02 0.57958636E-02 0.30714054E+01
#rwgt            1           4   17.547302357054051         54217137    18421564           0
</event>
<event>
      6  10013  3.31628E+03  4.97746E+00 -1.00000E+00  2.42844E-01
       2    -1     0     0   511     0  0.000000000E+00  0.000000000E+00  2.587749219E+03  2.587749219E+03  0.000000000E+00  0.00000E+00  9.000E+00
      -2    -1     0     0     0   501  0.000000000E+00  0.000000000E+00 -9.070138849E-01  9.070138849E-01  0.000000000E+00  0.00000E+00  9.000E+00
      23     2     1     2     0     0  1.267657891E+00 -4.813330821E+00  2.367295917E+03  2.369053529E+03  9.110371866E+01  0.00000E+00  9.000E+00
      13     1     3     3     0     0  2.288999444E+01  3.497710942E+01  7.874865110E+02  7.885951853E+02  1.056583668E-01  0.00000E+00  9.000E+00
     -13     1     3     3     0     0 -2.162233655E+01 -3.979044024E+01  1.579809406E+03  1.580458344E+03  1.056583668E-01  0.00000E+00  9.000E+00
      21     1     1     2   511   501 -1.267657891E+00  4.813330821E+00  2.195462873E+02  2.196027034E+02  2.697398305E-06  0.00000E+00  9.000E+00
#pdf   2 -2 0.36379202E+00 0.13499955E-03 0.91103719E+02 0.25386255E+00 0.30632803E+01
#rwgt            1           7   4167.7337382973919         54217137    18421801           0
</event>
<event>
      6  10013  3.31628E+03  7.99011E+01 -1.00000E+00  1.28351E-01
       1    -1     0     0   501     0  0.000000000E+00  0.000000000E+00  9.049085341E+02  9.049085341E+02  0.000000000E+00  0.00000E+00  9.000E+00
      21    -1     0     0   511   501  0.000000000E+00  0.000000000E+00 -1.323916758E+01  1.323916758E+01  0.000000000E+00  0.00000E+00  9.000E+00
      23     2     1     2     0     0 -7.983714678E+01  3.196556842E+00  6.972884278E+02  7.079855326E+02  9.299556337E+01  0.00000E+00  9.000E+00
      13     1     3     3     0     0 -7.708589356E+01  3.343542501E+01  3.764418108E+02  3.857053418E+02  1.056583668E-01  0.00000E+00  9.000E+00
     -13     1     3     3     0     0 -2.751253220E+00 -3.023886817E+01  3.208466171E+02  3.222801908E+02  1.056583668E-01  0.00000E+00  9.000E+00
       1     1     1     2   511     0  7.983714678E+01 -3.196556842E+00  1.943809386E+02  2.101621690E+02  0.000000000E+00  0.00000E+00  9.000E+00
#pdf   1 -1 0.81991013E-01 0.62412489E-03 0.92995563E+02 0.38778327E+00 0.17537431E+01
#rwgt            1           6   807.58446468610430         54217137    18422043           0
</event>
<event>
      6  10013  3.31628E+03  5.29817E+00 -1.00000E+00  2.34118E-01
      -1    -1     0     0     0   511  0.000000000E+00  0.000000000E+00  1.005408411E+00  1.005408411E+00  0.000000000E+00  0.00000E+00  9.000E+00
       1    -1     0     0   501     0  0.000000000E+00  0.000000000E+00 -1.484836407E+03  1.484836407E+03  0.000000000E+00  0.00000E+00  9.000E+00
      23     2     1     2     0     0  3.807024215E+00 -3.684718450E+00 -1.436968841E+03  1.438681108E+03  6.997004835E+01  0.00000E+00  9.000E+00
      13     1     3     3     0     0 -8.579363234E+00 -8.398599040E+00 -1.384898084E+03  1.384950128E+03  1.056583668E-01  0.00000E+00  9.000E+00
     -13     1     3     3     0     0  1.238638745E+01  4.713880591E+00 -5.207075736E+01  5.373097989E+01  1.056583668E-01  0.00000E+00  9.000E+00
      21     1     1     2   501   511 -3.807024215E+00  3.684718450E+00 -4.686215715E+01  4.716070776E+01  1.168007728E-06  0.00000E+00  9.000E+00
#pdf  -1  1 0.13133681E-03 0.22057241E+00 0.69970048E+02 0.29110154E+01 0.21305332E+00
#rwgt            1           5   271.25320520232651         54217137    18422096           0
</event>
<event>
      6  10013  3.31628E+03  1.98015E+00 -1.00000E+00  3.64888E-01
       2    -1     0     0   511     0  0.000000000E+00  0.000000000E+00  1.690830449E+03  1.690830449E+03  0.000000000E+00  0.00000E+00  9.000E+00
      -2    -1     0     0     0   501  0.000000000E+00  0.000000000E+00 -8.046828008E-02  8.046828008E-02  0.000000000E+00  0.00000E+00  9.000E+00
      23     2     1     2     0     0 -1.152095673E-02 -1.980114840E+00  1.320700018E+03  1.320855657E+03  2.017937698E+01  0.00000E+00  9.000E+00
      13     1     3     3     0     0 -4.066700241E+00  2.321364089E+00  7.740464586E+01  7.754622587E+01  1.056583668E-01  0.00000E+00  9.000E+00
     -13     1     3     3     0     0  4.055179285E+00 -4.301478929E+00  1.243295372E+03  1.243309431E+03  1.056583668E-01  0.00000E+00  9.000E+00
      21     1     1     2   511   501  1.152095673E-02  1.980114840E+00  3.700499629E+02  3.700552608E+02  5.394796609E-06  0.00000E+00  9.000E+00
#pdf   2 -2 0.20222531E+00 0.11914979E-04 0.20179377E+02 0.54678857E+00 0.41224853E+01
#rwgt            1           7   2912.5499384400614         54217137    18422219           0
</event>
<event>
      6  10013  3.31628E+03  6.94145E+00 -1.00000E+00  2.15999E-01
      21    -1     0     0   511   501  0.000000000E+00  0.000000000E+00  9.134522141E-01  9.134522141E-01  0.000000000E+00  0.00000E+00  9.000E+00
       2    -1     0     0   501     0  0.000000000E+00  0.000000000E+00 -4.053478740E+03  4.053478740E+03  0.000000000E+00  0.00000E+00  9.000E+00
      23     2     1     2     0     0  5.085557079E+00  4.724497606E+00 -4.023744877E+03  4.024747634E+03  8.956838980E+01  0.00000E+00  9.000E+00
      13     1     3     3     0     0 -2.796643175E+01  2.521566779E+01 -3.041683396E+03  3.041916476E+03  1.056583668E-01  0.00000E+00  9.000E+00
     -13     1     3     3     0     0  3.305198882E+01 -2.049117019E+01 -9.820614810E+02  9.828311582E+02  1.056583668E-01  0.00000E+00  9.000E+00
       2     1     1     2   511     0 -5.085557079E+00 -4.724497606E+00 -2.882041076E+01  2.964455844E+01  0.000000000E+00  0.00000E+00  9.000E+00
#pdf  -2  2 0.76904533E-04 0.61726391E+00 0.89568390E+02 0.37191955E+01 0.38825594E-01
#rwgt            1           4   1868.2245566934239         54217137    18422278           0
</event>
<event>
      6  10013  3.31628E+03  1.86406E+01 -1.00000E+00  1.68888E-01
      21    -1     0     0   511   501  0.000000000E+00  0.000000000E+00  4.596620351E+01  4.596620351E+01  0.000000000E+00  0.00000E+00  9.000E+00
       2    -1     0     0   501     0  0.000000000E+00  0.000000000E+00 -1.236938850E+02  1.236938850E+02  0.000000000E+00  0.00000E+00  9.000E+00
      23     2     1     2     0     0  6.534089659E+00  1.745792029E+01 -1.075073452E+02  1.345274587E+02  7.869138813E+01  0.00000E+00  9.000E+00
      13     1     3     3     0     0  1.085253113E+01  2.521109532E+01 -8.081893540E-01  2.745980868E+01  1.056583668E-01  0.00000E+00  9.000E+00
     -13     1     3     3     0     0 -4.318441473E+00 -7.753175026E+00 -1.066991559E+02  1.070676500E+02  1.056583668E-01  0.00000E+00  9.000E+00
       2     1     1     2   511     0 -6.534089659E+00 -1.745792029E+01  2.977966369E+01  3.513262982E+01  0.000000000E+00  0.00000E+00  9.000E+00
#pdf  -2  2 0.20225000E-02 0.18116704E-01 0.78691388E+02 0.10660446E+01 0.68417428E+00
#rwgt            1           4   1030.2361142236830         54217137    18422373           0
</event>
<event>
      6  10013  3.31628E+03  6.63085E+00 -1.00000E+00  2.18860E-01
      21    -1     0     0   511   501  0.000000000E+00  0.000000000E+00  1.169670541E+01  1.169670541E+01  0.000000000E+00  0.00000E+00  9.000E+00
       2    -1     0     0   501     0  0.000000000E+00  0.000000000E+00 -1.792104072E+01  1.792104072E+01  0.000000000E+00  0.00000E+00  9.000E+00
      23     2     1     2     0     0  5.420950062E+00 -3.818565579E+00 -7.783237610E+00  2.280611498E+01  2.038558192E+01  0.00000E+00  9.000E+00
      13     1     3     3     0     0  4.573858674E+00  2.669209348E+00 -1.325628691E+01  1.427533426E+01  1.056583668E-01  0.00000E+00  9.000E+00
     -13     1     3     3     0     0  8.470913870E-01 -6.487774926E+00  5.473049304E+00  8.530780720E+00  1.056583668E-01  0.00000E+00  9.000E+00
       2     1     1     2   511     0 -5.420950062E+00  3.818565579E+00  1.558902298E+00  6.811631157E+00  0.000000000E+00  0.00000E+00  9.000E+00
#pdf  -2  2 0.10989329E-02 0.22376303E-02 0.20385582E+02 0.10380332E+01 0.91221042E+00
#rwgt            1           4   826.39061093289092         54217137    18422458           0
</event>
<event>
      6  10013  3.31628E+03  1.92495E+01 -1.00000E+00  1.67709E-01
      21    -1     0     0   511   501  0.000000000E+00  0.000000000E+00  1.448506849E+00  1.448506849E+00  0.000000000E+00  0.00000E+00  9.000E+00
       1    -1     0     0   501     0  0.000000000E+00  0.000000000E+00 -2.400286194E+03  2.400286194E+03  0.000000000E+00  0.00000E+00  9.000E+00
      23     2     1     2     0     0  1.469137902E+01 -1.243806727E+01 -2.211540975E+03  2.213451403E+03  8.990597334E+01  0.00000E+00  9.000E+00
      13     1     3     3     0     0  2.855318222E+01 -9.737859137E+00 -2.437594609E+02  2.456192095E+02  1.056583668E-01  0.00000E+00  9.000E+00
     -13     1     3     3     0     0 -1.386180320E+01 -2.700208135E+00 -1.967781515E+03  1.967832193E+03  1.056583668E-01  0.00000E+00  9.000E+00
       1     1     1     2   511     0 -1.469137902E+01  1.243806727E+01 -1.872967121E+02  1.882832985E+02  0.000000000E+00  0.00000E+00  9.000E+00
#pdf  -1  1 0.14369915E-03 0.33284053E+00 0.89905973E+02 0.29909826E+01 0.10656691E+00
#rwgt            1           5   576.87446906393961         54217137    18422546           0
</event>
<event>
      6  10013  3.31628E+03  2.11571E+01 -1.00000E+00  1.64338E-01
      21    -1     0     0   511   501  0.000000000E+00  0.000000000E+00  2.834624773E+00  2.834624773E+00  0.000000000E+00  0.00000E+00  9.000E+00
       2    -1     0     0   501     0  0.000000000E+00  0.000000000E+00 -1.391831361E+03  1.391831361E+03  0.000000000E+00  0.00000E+00  9.000E+00
      23     2     1     2     0     0 -4.302493516E+00  2.071498593E+01 -1.206365661E+03  1.210813513E+03  1.015068137E+02  0.00000E+00  9.000E+00
      13     1     3     3     0     0  5.767640668E+00 -3.799160134E+01 -2.932211584E+02  2.957283996E+02  1.056583668E-01  0.00000E+00  9.000E+00
     -13     1     3     3     0     0 -1.007013418E+01  5.870658726E+01 -9.131445027E+02  9.150851135E+02  1.056583668E-01  0.00000E+00  9.000E+00
       2     1     1     2   511     0  4.302493516E+00 -2.071498593E+01 -1.826310755E+02  1.838524730E+02  0.000000000E+00  0.00000E+00  9.000E+00
#pdf  -2  2 0.33494430E-03 0.18202502E+00 0.10150681E+03 0.22489862E+01 0.51156358E+00
#rwgt            1           4   1076.6170994036167         54217137    18422588           0
</event>
<event>
      6  10013  3.31628E+03  3.79183E+00 -1.00000E+00  2.68949E-01
      21    -1     0     0   511   501  0.000000000E+00  0.000000000E+00  6.111840266E+00  6.111840266E+00  0.000000000E+00  0.00000E+00  9.000E+00
       2    -1     0     0   501     0  0.000000000E+00  0.000000000E+00 -1.628250156E+03  1.628250156E+03  0.000000000E+00  0.00000E+00  9.000E+00
      23     2     1     2     0     0 -3.728799766E+00  6.884987180E-01 -1.626126872E+03  1.628858673E+03  9.422100131E+01  0.00000E+00  9.000E+00
      13     1     3     3     0     0  4.299800330E+01 -4.636344569E+00 -1.016933651E+03  1.017852831E+03  1.056583668E-01  0.00000E+00  9.000E+00
     -13     1     3     3     0     0 -4.672680307E+01  5.324843287E+00 -6.091932205E+02  6.110058422E+02  1.056583668E-01  0.00000E+00  9.000E+00
       2     1     1     2   511     0  3.728799766E+00 -6.884987180E-01  3.988556263E+00  5.503322564E+00  0.000000000E+00  0.00000E+00  9.000E+00
#pdf  -2  2 0.20996863E-03 0.25018099E+00 0.94221001E+02 0.26321695E+01 0.41689451E+00
#rwgt            1           4   1877.4730342201353         54217137    18422693           0
</event>
<event>
      6  10013  3.31628E+03  3.28980E+01 -1.00000E+00  1.50276E-01
      21    -1     0     0   511   501  0.000000000E+00  0.000000000E+00  2.068033288E+02  2.068033288E+02  0.000000000E+00  0.00000E+00  9.000E+00
       3    -1     0     0   501     0  0.000000000E+00  0.000000000E+00 -8.314380498E+00  8.314380498E+00  0.000000000E+00  0.00000E+00  9.000E+00
      23     2     1     2     0     0 -2.817926899E+01  1.697670318E+01  8.803392200E+01  9.986757920E+01  3.378286994E+01  0.00000E+00  9.000E+00
      13     1     3     3     0     0  1.788089733E+00  1.261562165E+01  1.010891399E+01  1.626506933E+01  1.056583668E-01  0.00000E+00  9.000E+00
     -13     1     3     3     0     0 -2.996735872E+01  4.361081536E+00  7.792500801E+01  8.360250988E+01  1.056583668E-01  0.00000E+00  9.000E+00
       3     1     1     2   511     0  2.817926899E+01 -1.697670318E+01  1.104550263E+02  1.152501301E+02  0.000000000E+00  0.00000E+00  9.000E+00
#pdf  -3  3 0.10355208E-01 0.65215009E-03 0.33782870E+02 0.43817855E+00 0.13554055E+01
#rwgt            1           3   117.53110834936969         54217137    18422892           0
</event>
<event>
      6  10013  3.31628E+03  1.94203E+01 -1.00000E+00  1.67388E-01
       1    -1     0     0   511     0  0.000000000E+00  0.000000000E+00  2.964059901E+02  2.964059901E+02  0.000000000E+00  0.00000E+00  9.000E+00
      -1    -1     0     0     0   501  0.000000000E+00  0.000000000E+00 -1.069116670E+01  1.069116670E+01  0.000000000E+00  0.00000E+00  9.000E+00
      23     2     1     2     0     0 -1.810842567E+01  7.016598386E+00  2.345634154E+02  2.523832255E+02  9.110515328E+01  0.00000E+00  9.000E+00
      13     1     3     3     0     0  2.528841472E+01 -8.855203298E+00  1.747883461E+02  1.768301322E+02  1.056583668E-01  0.00000E+00  9.000E+00
     -13     1     3     3     0     0 -4.339684039E+01  1.587180168E+01  5.977506928E+01  7.555309335E+01  1.056583668E-01  0.00000E+00  9.000E+00
      21     1     1     2   511   501  1.810842567E+01 -7.016598386E+00  5.115140798E+01  5.471393123E+01  0.000000000E+00  0.00000E+00  9.000E+00
#pdf   1 -1 0.36634371E-01 0.13406346E-02 0.91105153E+02 0.47865504E+00 0.12970213E+01
#rwgt            1           6   996.96272923442700         54217137    18422956           0
</event>
<event>
      6  10013  3.31628E+03  3.27987E+00 -1.00000E+00  2.85460E-01
      -3    -1     0     0     0   501  0.000000000E+00  0.000000000E+00  8.068684756E-01  8.068684756E-01  0.000000000E+00  0.00000E+00  9.000E+00
       3    -1     0     0   511     0  0.000000000E+00  0.000000000E+00 -3.800958858E+02  3.800958858E+02  0.000000000E+00  0.00000E+00  9.000E+00
      23     2     1     2     0     0  1.120789553E+00  3.082433659E+00 -3.372478182E+02  3.387338085E+02  3.152371415E+01  0.00000E+00  9.000E+00
      13     1     3     3     0     0  5.307165841E+00 -1.354294262E+01 -1.524309977E+02  1.531234715E+02  1.056583668E-01  0.00000E+00  9.000E+00
     -13     1     3     3     0     0 -4.186376287E+00  1.662537628E+01 -1.848168205E+02  1.856103370E+02  1.056583668E-01  0.00000E+00  9.000E+00
      21     1     1     2   511   501 -1.120789553E+00 -3.082433659E+00 -4.204119912E+01  4.216894580E+01  6.743495762E-07  0.00000E+00  9.000E+00
#pdf  -3  3 0.11369322E-03 0.51719402E-01 0.31523714E+02 0.23898589E+01 0.14435122E+00
#rwgt            1           3   80.349577290067543         54217137    18423001           0
</event>
<event>
      6  10013  3.31628E+03  2.52432E+00 -1.00000E+00  3.21479E-01
       2    -1     0     0   501     0  0.000000000E+00  0.000000000E+00  7.128065310E-01  7.128065310E-01  0.000000000E+00  0.00000E+00  9.000E+00
      21    -1     0     0   511   501  0.000000000E+00  0.000000000E+00 -2.575408303E+02  2.575408303E+02  0.000000000E+00  0.00000E+00  9.000E+00
      23     2     1     2     0     0  1.624105251E+00  1.932483919E+00 -2.356727006E+02  2.369482406E+02  2.442283119E+01  0.00000E+00  9.000E+00
      13     1     3     3     0     0 -4.423758380E+00 -8.959245012E+00 -5.929499492E+01  6.013106764E+01  1.056583668E-01  0.00000E+00  9.000E+00
     -13     1     3     3     0     0  6.047863632E+00  1.089172893E+01 -1.763777057E+02  1.768171729E+02  1.056583668E-01  0.00000E+00  9.000E+00
       2     1     1     2   511     0 -1.624105251E+00 -1.932483919E+00 -2.115532312E+01  2.130539622E+01  0.000000000E+00  0.00000E+00  9.000E+00
#pdf   2 -2 0.97598515E-04 0.36162804E-01 0.24422831E+02 0.23947414E+01 0.23021570E+00
#rwgt            1           7   788.29940103114279         54217137    18423102           0
</event>
<event>
      6  10013  3.31628E+03  6.80805E+00 -1.00000E+00  2.17202E-01
      -1    -1     0     0     0   501  0.000000000E+00  0.000000000E+00  4.008805578E+01  4.008805578E+01  0.000000000E+00  0.00000E+00  9.000E+00
      21    -1     0     0   501   511  0.000000000E+00  0.000000000E+00 -1.080383141E+01  1.080383141E+01  0.000000000E+00  0.00000E+00  9.000E+00
      23     2     1     2     0     0 -5.197137313E+00  4.397647697E+00  9.248860314E+00  2.973142041E+01  2.742382907E+01  0.00000E+00  9.000E+00
      13     1     3     3     0     0  1.061470523E+01  4.531259723E+00  7.630226039E+00  1.383603248E+01  1.056583668E-01  0.00000E+00  9.000E+00
     -13     1     3     3     0     0 -1.581184254E+01 -1.336120267E-01  1.618634275E+00  1.589538792E+01  1.056583668E-01  0.00000E+00  9.000E+00
      -1     1     1     2     0   511  5.197137313E+00 -4.397647697E+00  2.003536406E+01  2.116046678E+01  0.000000000E+00  0.00000E+00  9.000E+00
#pdf  -1  1 0.29101482E-02 0.15291651E-02 0.27423829E+02 0.79126653E+00 0.10483477E+01
#rwgt            1           5   151.29722328644374         54217137    18423199           0
</event>
<event>
      6  10013  3.31628E+03  2.93699E+00 -1.00000E+00  2.99552E-01
       2    -1     0     0   501     0  0.000000000E+00  0.000000000E+00  7.752684303E+02  7.752684303E+02  0.000000000E+00  0.00000E+00  9.000E+00
      -2    -1     0     0     0   511  0.000000000E+00  0.000000000E+00 -1.540609508E+00  1.540609508E+00  0.000000000E+00  0.00000E+00  9.000E+00
      23     2     1     2     0     0 -1.291977799E+00 -2.637552749E+00  7.590420907E+02  7.618325062E+02  6.507876865E+01  0.00000E+00  9.000E+00
      13     1     3     3     0     0  7.361584672E-01 -1.927093730E+01  7.060325115E+01  7.318976152E+01  1.056583668E-01  0.00000E+00  9.000E+00
     -13     1     3     3     0     0 -2.028136266E+00  1.663338455E+01  6.884388395E+02  6.886427447E+02  1.056583668E-01  0.00000E+00  9.000E+00
      21     1     1     2   501   511  1.291977799E+00  2.637552749E+00  1.468573008E+01  1.497653362E+01  1.685873940E-07  0.00000E+00  9.000E+00
#pdf   2 -2 0.11687140E+00 0.21442909E-03 0.65078769E+02 0.59519780E+00 0.24066289E+01
#rwgt            1           7   3900.5817036399358         54217137    18423253           0
</event>
<event>
      6  10013  3.31628E+03  2.88915E+01 -1.00000E+00  1.54149E-01
      21    -1     0     0   511   501  0.000000000E+00  0.000000000E+00  2.049514941E+00  2.049514941E+00  0.000000000E+00  0.00000E+00  9.000E+00
       2    -1     0     0   501     0  0.000000000E+00  0.000000000E+00 -2.146520400E+03  2.146520400E+03  0.000000000E+00  0.00000E+00  9.000E+00
      23     2     1     2     0     0 -1.631015333E+01 -2.384738270E+01 -1.868414704E+03  1.871005987E+03  9.410196628E+01  0.00000E+00  9.000E+00
      13     1     3     3     0     0 -3.976278149E+01 -2.941771325E+01 -5.134553849E+02  5.158322635E+02  1.056583668E-01  0.00000E+00  9.000E+00
     -13     1     3     3     0     0  2.345262815E+01  5.570330548E+00 -1.354959319E+03  1.355173724E+03  1.056583668E-01  0.00000E+00  9.000E+00
       2     1     1     2   511     0  1.631015333E+01  2.384738270E+01 -2.760561816E+02  2.775639281E+02  0.000000000E+00  0.00000E+00  9.000E+00
#pdf  -2  2 0.19055074E-03 0.27497933E+00 0.94101966E+02 0.27259878E+01 0.37990732E+00
#rwgt            1           4   1379.7685379024483         54217137    18423438           0
</event>
<event>
      6  10013  3.31628E+03  1.26906E+00 -1.00000E+00  5.10158E-01
       2    -1     0     0   511     0  0.000000000E+00  0.000000000E+00  1.856744683E+03  1.856744683E+03  0.000000000E+00  0.00000E+00  9.000E+00
      -2    -1     0     0     0   501  0.000000000E+00  0.000000000E+00 -8.802039470E-02  8.802039470E-02  0.000000000E+00  0.00000E+00  9.000E+00
      23     2     1     2     0     0  2.806048196E-01 -1.237646309E+00  1.645306518E+03  1.645478749E+03  2.377317815E+01  0.00000E+00  9.000E+00
      13     1     3     3     0     0 -3.119806374E+00 -9.841901298E+00  1.320793228E+03  1.320833585E+03  1.056583668E-01  0.00000E+00  9.000E+00
     -13     1     3     3     0     0  3.400411194E+00  8.604254990E+00  3.245132906E+02  3.246451646E+02  1.056583668E-01  0.00000E+00  9.000E+00
      21     1     1     2   511   501 -2.806048196E-01  1.237646309E+00  2.113501440E+02  2.113539540E+02  0.000000000E+00  0.00000E+00  9.000E+00
#pdf   2 -2 0.25277742E+00 0.13229685E-04 0.23773178E+02 0.47164364E+00 0.42784904E+01
#rwgt            1           7   3542.2791525230482         54217137    18423512           0
</event>
<event>
      6  10013  3.31628E+03  3.73252E+01 -1.00000E+00  1.46697E-01
      21    -1     0     0   501   511  0.000000000E+00  0.000000000E+00  1.681895731E+03  1.681895731E+03  0.000000000E+00  0.00000E+00  9.000E+00
      -4    -1     0     0     0   501  0.000000000E+00  0.000000000E+00 -2.587908234E+00  2.587908234E+00  0.000000000E+00  0.00000E+00  9.000E+00
      23     2     1     2     0     0  3.729108050E+01 -1.596486693E+00  1.067852396E+03  1.071890044E+03  8.512552074E+01  0.00000E+00  9.000E+00
      13     1     3     3     0     0  4.026566593E+01  3.058835026E+01  8.651805046E+02  8.666569608E+02  1.056583668E-01  0.00000E+00  9.000E+00
     -13     1     3     3     0     0 -2.974585429E+00 -3.218483695E+01  2.026718912E+02  2.052330834E+02  1.056583668E-01  0.00000E+00  9.000E+00
      -4     1     1     2     0   511 -3.729108050E+01  1.596486693E+00  6.114554265E+02  6.125935946E+02  0.000000000E+00  0.00000E+00  9.000E+00
#pdf   4 -4 0.15074153E+00 0.28444607E-03 0.85125521E+02 0.15486310E-01 0.19510179E+01
#rwgt            1           9   32.796680918605446         54217137    18423712           0
</event>
<event>
      6  10013  3.31628E+03  1.19492E+00 -1.00000E+00  5.39337E-01
      -2    -1     0     0     0   501  0.000000000E+00  0.000000000E+00  2.492458792E+01  2.492458792E+01  0.000000000E+00  0.00000E+00  9.000E+00
       2    -1     0     0   511     0  0.000000000E+00  0.000000000E+00 -8.995178511E+00  8.995178511E+00  0.000000000E+00  0.00000E+00  9.000E+00
      23     2     1     2     0     0 -2.126278940E-01 -1.175854221E+00  1.976571367E+01  2.990167308E+01  2.240532910E+01  0.00000E+00  9.000E+00
      13     1     3     3     0     0 -6.921754095E+00  3.171646303E+00  2.050413995E+01  2.187237845E+01  1.056583668E-01  0.00000E+00  9.000E+00
     -13     1     3     3     0     0  6.709126201E+00 -4.347500524E+00 -7.384262835E-01  8.029294630E+00  1.056583668E-01  0.00000E+00  9.000E+00
      21     1     1     2   511   501  2.126278940E-01  1.175854221E+00 -3.836304264E+00  4.018093351E+00  5.960464478E-08  0.00000E+00  9.000E+00
#pdf  -2  2 0.38151463E-02 0.77858270E-03 0.22405329E+02 0.67946125E+00 0.12491450E+01
#rwgt            1           4   875.12186747685826         54217137    18423859           0
</event>
<event>
      6  10013  3.31628E+03  3.21094E+00 -1.00000E+00  2.88061E-01
      21    -1     0     0   511   501  0.000000000E+00  0.000000000E+00  1.087085072E+01  1.087085072E+01  0.000000000E+00  0.00000E+00  9.000E+00
       1    -1     0     0   501     0  0.000000000E+00  0.000000000E+00 -3.881889382E+02  3.881889382E+02  0.000000000E+00  0.00000E+00  9.000E+00
      23     2     1     2     0     0 -8.505070769E-01  3.096246862E+00 -3.833347193E+02  3.922399675E+02  8.304441534E+01  0.00000E+00  9.000E+00
      13     1     3     3     0     0  2.563462956E+01  1.129728927E+01 -4.664627938E+01  5.441185093E+01  1.056583668E-01  0.00000E+00  9.000E+00
     -13     1     3     3     0     0 -2.648513663E+01 -8.201042409E+00 -3.366884400E+02  3.378281165E+02  1.056583668E-01  0.00000E+00  9.000E+00
       1     1     1     2   511     0  8.505070769E-01 -3.096246862E+00  6.016631815E+00  6.819821502E+00  0.000000000E+00  0.00000E+00  9.000E+00
#pdf  -1  1 0.68450761E-03 0.59615046E-01 0.83044415E+02 0.16591882E+01 0.42599346E+00
#rwgt            1           5   719.12456529170845         54217137    18424160           0
</event>
<event>
      6  10013  3.31628E+03  1.80052E+01 -1.00000E+00  1.70181E-01
       1    -1     0     0   501     0  0.000000000E+00  0.000000000E+00  9.308844890E+02  9.308844890E+02  0.000000000E+00  0.00000E+00  9.000E+00
      21    -1     0     0   511   501  0.000000000E+00  0.000000000E+00 -1.285912161E+01  1.285912161E+01  0.000000000E+00  0.00000E+00  9.000E+00
      23     2     1     2     0     0  1.530917981E+01  9.477231156E+00  9.208006477E+02  9.255257327E+02  9.165075117E+01  0.00000E+00  9.000E+00
      13     1     3     3     0     0 -2.611510555E+01  2.003461892E+01  6.909534542E+02  6.917369960E+02  1.056583668E-01  0.00000E+00  9.000E+00
     -13     1     3     3     0     0  4.142428535E+01 -1.055738776E+01  2.298471935E+02  2.337887366E+02  1.056583668E-01  0.00000E+00  9.000E+00
       1     1     1     2   511     0 -1.530917981E+01 -9.477231156E+00 -2.775280271E+00  1.821787796E+01  0.000000000E+00  0.00000E+00  9.000E+00
#pdf   1 -1 0.13936127E+00 0.35665084E-03 0.91650751E+02 0.30674303E+00 0.21588992E+01
#rwgt            1           6   1242.7447531906432         54217137    18424275           0
</event>
<event>
      6  10013  3.31628E+03  3.98805E+00 -1.00000E+00  2.63668E-01
      -2    -1     0     0     0   501  0.000000000E+00  0.000000000E+00  4.913869263E+00  4.913869263E+00  0.000000000E+00  0.00000E+00  9.000E+00
       2    -1     0     0   511     0  0.000000000E+00  0.000000000E+00 -4.778499183E+02  4.778499183E+02  0.000000000E+00  0.00000E+00  9.000E+00
      23     2     1     2     0     0  1.294394899E+00  3.772143225E+00 -4.158877316E+02  4.255762448E+02  9.020327231E+01  0.00000E+00  9.000E+00
      13     1     3     3     0     0 -1.134390681E+00  2.495256614E+00 -4.203380016E+02  4.203469518E+02  1.056583668E-01  0.00000E+00  9.000E+00
     -13     1     3     3     0     0  2.428785579E+00  1.276886611E+00  4.450269987E+00  5.229293016E+00  1.056583668E-01  0.00000E+00  9.000E+00
      21     1     1     2   511   501 -1.294394899E+00 -3.772143225E+00 -5.704831741E+01  5.718754272E+01  9.536743164E-07  0.00000E+00  9.000E+00
#pdf  -2  2 0.74454293E-03 0.64664829E-01 0.90203272E+02 0.16232570E+01 0.62485083E+00
#rwgt            1           4   391.94249258871042         54217137    18424339           0
</event>
<event>
      6  10013  3.31628E+03  1.47185E+01 -1.00000E+00  1.78114E-01
      -3    -1     0     0     0   501  0.000000000E+00  0.000000000E+00  8.977077820E+01  8.977077820E+01  0.000000000E+00  0.00000E+00  9.000E+00
       3    -1     0     0   511     0  0.000000000E+00  0.000000000E+00 -3.193074538E+01  3.193074538E+01  0.000000000E+00  0.00000E+00  9.000E+00
      23     2     1     2     0     0 -7.930879949E+00 -1.239905577E+01  5.617908131E+01  1.068895622E+02  8.973658052E+01  0.00000E+00  9.000E+00
      13     1     3     3     0     0 -4.150001561E+01  1.708894178E+01  3.740299786E+01  5.842327139E+01  1.056583668E-01  0.00000E+00  9.000E+00
     -13     1     3     3     0     0  3.356913566E+01 -2.948799756E+01  1.877608344E+01  4.846629078E+01  1.056583668E-01  0.00000E+00  9.000E+00
      21     1     1     2   511   501  7.930879949E+00  1.239905577E+01  1.660951521E+00  1.481196141E+01  1.724934116E-07  0.00000E+00  9.000E+00
#pdf  -3  3 0.12378343E-01 0.38493713E-02 0.89736581E+02 0.43259109E+00 0.78911688E+00
#rwgt            1           3   373.79093404184351         54217137    18424560           0
</event>
<event>
      6  10013  3.31628E+03  2.91528E+01 -1.00000E+00  1.53874E-01
      21    -1     0     0   501   511  0.000000000E+00  0.000000000E+00  1.379029056E+01  1.379029056E+01  0.000000000E+00  0.00000E+00  9.000E+00
      -1    -1     0     0     0   501  0.000000000E+00  0.000000000E+00 -2.980483667E+02  2.980483667E+02  0.000000000E+00  0.00000E+00  9.000E+00
      23     2     1     2     0     0 -2.900248278E+01  2.956204011E+00 -1.792845448E+02  2.028922235E+02  9.040145574E+01  0.00000E+00  9.000E+00
      13     1     3     3     0     0  7.249924568E-01 -4.144804224E+01 -8.283812639E+01  9.263170174E+01  1.056583668E-01  0.00000E+00  9.000E+00
     -13     1     3     3     0     0 -2.972747524E+01  4.440424625E+01 -9.644641842E+01  1.102605218E+02  1.056583668E-01  0.00000E+00  9.000E+00
      -1     1     1     2     0   511  2.900248278E+01 -2.956204011E+00 -1.049735314E+02  1.089464338E+02  0.000000000E+00  0.00000E+00  9.000E+00
#pdf   1 -1 0.17283296E-02 0.27979347E-01 0.90401456E+02 0.12287215E+01 0.31276127E+00
#rwgt            1           6   427.22435549863570         54217137    18424636           0
</event>
<event>
      6  10013 -3.31628E+03  1.31114E+00 -1.00000E+00  4.95712E-01
      -2    -1     0     0     0   511  0.000000000E+00  0.000000000E+00  8.290125695E+00  8.290125695E+00  0.000000000E+00  0.00000E+00  9.000E+00
       2    -1     0     0   501     0  0.000000000E+00  0.000000000E+00 -2.137291657E+01  2.137291657E+01  0.000000000E+00  0.00000E+00  9.000E+00
      23     2     1     2     0     0 -8.838295042E-02  1.308161731E+00 -1.457916247E+01  2.767351301E+01  2.348514947E+01  0.00000E+00  9.000E+00
      13     1     3     3     0     0  5.431796604E-02 -1.074757183E+01 -1.028010436E+01  1.487296070E+01  1.056583668E-01  0.00000E+00  9.000E+00
     -13     1     3     3     0     0 -1.427009165E-01  1.205573356E+01 -4.299058110E+00  1.280055231E+01  1.056583668E-01  0.00000E+00  9.000E+00
      21     1     1     2   501   511  8.838295042E-02 -1.308161731E+00  1.496371601E+00  1.989529248E+00  2.980232239E-08  0.00000E+00  9.000E+00
#pdf  -2  2 0.10056917E-02 0.32451524E-02 0.23485149E+02 0.11070088E+01 0.85298608E+00
#rwgt            1           4  -1497.7415202384345         54217137    18424669           0
</event>
<event>
      6  10013  3.31628E+03  2.59360E+00 -1.00000E+00  3.17309E-01
       2    -1     0     0   501     0  0.000000000E+00  0.000000000E+00  1.125271612E+00  1.125271612E+00  0.000000000E+00  0.00000E+00  9.000E+00
      -2    -1     0     0     0   511  0.000000000E+00  0.000000000E+00 -1.403963694E+03  1.403963694E+03  0.000000000E+00  0.00000E+00  9.000E+00
      23     2     1     2     0     0  8.239234310E-01  2.459252237E+00 -4.651320366E+02  4.673789930E+02  4.570103787E+01  0.00000E+00  9.000E+00
      13     1     3     3     0     0 -1.318399321E+01 -1.370376238E+01 -3.316002084E+02  3.321450288E+02  1.056583668E-01  0.00000E+00  9.000E+00
     -13     1     3     3     0     0  1.400791664E+01  1.616301462E+01 -1.335318282E+02  1.352339642E+02  1.056583668E-01  0.00000E+00  9.000E+00
      21     1     1     2   501   511 -8.239234310E-01 -2.459252237E+00 -9.377063859E+02  9.377099727E+02  1.525878906E-05  0.00000E+00  9.000E+00
#pdf   2 -2 0.17256513E-03 0.71616382E-01 0.45701038E+02 0.24041908E+01 0.13020020E+00
#rwgt            1           7   454.30347464894612         54217137    18425000           0
</event>
<event>
      6  10013  3.31628E+03  3.01207E+00 -1.00000E+00  2.96201E-01
       3    -1     0     0   511     0  0.000000000E+00  0.000000000E+00  1.794446721E+02  1.794446721E+02  0.000000000E+00  0.00000E+00  9.000E+00
      -3    -1     0     0     0   501  0.000000000E+00  0.000000000E+00 -1.247025030E+02  1.247025030E+02  0.000000000E+00  0.00000E+00  9.000E+00
      23     2     1     2     0     0 -2.952116817E+00 -5.979874516E-01 -1.080990246E+02  1.412781265E+02  9.091225069E+01  0.00000E+00  9.000E+00
      13     1     3     3     0     0 -4.472220053E+01 -9.111441072E+00 -3.873723799E+01  5.986383173E+01  1.056583668E-01  0.00000E+00  9.000E+00
     -13     1     3     3     0     0  4.177008372E+01  8.513453621E+00 -6.936178664E+01  8.141429479E+01  1.056583668E-01  0.00000E+00  9.000E+00
      21     1     1     2   511   501  2.952116817E+00  5.979874516E-01  1.628411938E+02  1.628690485E+02  0.000000000E+00  0.00000E+00  9.000E+00
#pdf   3 -3 0.25508390E-02 0.19172338E-01 0.90912251E+02 0.95121339E+00 0.32938580E+00
#rwgt            1           8   418.76009354013991         54217137    18425138           0
</event>
<event>
      6  10013  3.31628E+03  2.06627E+00 -1.00000E+00  3.56386E-01
       1    -1     0     0   511     0  0.000000000E+00  0.000000000E+00  1.399932295E+01  1.399932295E+01  0.000000000E+00  0.00000E+00  9.000E+00
      -1    -1     0     0     0   501  0.000000000E+00  0.000000000E+00 -1.572768771E+02  1.572768771E+02  0.000000000E+00  0.00000E+00  9.000E+00
      23     2     1     2     0     0  2.721207460E-01  2.048269404E+00 -1.424300476E+02  1.690428786E+02  9.102146390E+01  0.00000E+00  9.000E+00
      13     1     3     3     0     0 -1.393445875E+01 -1.439118461E+01 -1.456998496E+02  1.470705024E+02  1.056583668E-01  0.00000E+00  9.000E+00
     -13     1     3     3     0     0  1.420657949E+01  1.643945402E+01  3.269801965E+00  2.197237624E+01  1.056583668E-01  0.00000E+00  9.000E+00
      21     1     1     2   511   501 -2.721207460E-01 -2.048269404E+00 -8.475065095E-01  2.233321413E+00  2.580956828E-08  0.00000E+00  9.000E+00
#pdf   1 -1 0.20466136E-02 0.23953285E-01 0.91021464E+02 0.11570760E+01 0.34245025E+00
#rwgt            1           6   385.21761572639440         54217137    18425225           0
</event>
<event>
      6  10013  3.31628E+03  1.67927E+01 -1.00000E+00  1.72841E-01
      -2    -1     0     0     0   501  0.000000000E+00  0.000000000E+00  2.192391729E+01  2.192391729E+01  0.000000000E+00  0.00000E+00  9.000E+00
       2    -1     0     0   511     0  0.000000000E+00  0.000000000E+00 -3.979066523E+02  3.979066523E+02  0.000000000E+00  0.00000E+00  9.000E+00
      23     2     1     2     0     0  1.581059818E+01 -5.658702098E+00 -3.158705741E+01  7.502572817E+01  6.594787159E+01  0.00000E+00  9.000E+00
      13     1     3     3     0     0 -1.072829579E+01  4.916704988E+00  1.578312818E+01  1.970757766E+01  1.056583668E-01  0.00000E+00  9.000E+00
     -13     1     3     3     0     0  2.653889397E+01 -1.057540709E+01 -4.737018559E+01  5.531815050E+01  1.056583668E-01  0.00000E+00  9.000E+00
      21     1     1     2   511   501 -1.581059818E+01  5.658702098E+00 -3.443956775E+02  3.448048414E+02  5.394796609E-06  0.00000E+00  9.000E+00
#pdf  -2  2 0.32381059E-02 0.79473770E-02 0.65947872E+02 0.85460996E+00 0.78267768E+00
#rwgt            1           4   1529.5391516539462         54217137    18425404           0
</event>
<event>
      6  10013  3.31628E+03  5.71926E+00 -1.00000E+00  2.28672E-01
       2    -1     0     0   511     0  0.000000000E+00  0.000000000E+00  1.771229092E+01  1.771229092E+01  0.000000000E+00  0.00000E+00  9.000E+00
      -2    -1     0     0     0   501  0.000000000E+00  0.000000000E+00 -1.558239507E+02  1.558239507E+02  0.000000000E+00  0.00000E+00  9.000E+00
      23     2     1     2     0     0 -9.410238062E-01  5.641317175E+00 -1.369342973E+02  1.676970493E+02  9.663637285E+01  0.00000E+00  9.000E+00
      13     1     3     3     0     0  3.583574438E+01 -2.894993517E+01 -7.134498780E+01  8.492595463E+01  1.056583668E-01  0.00000E+00  9.000E+00
     -13     1     3     3     0     0 -3.677676819E+01  3.459125235E+01 -6.558930955E+01  8.277109464E+01  1.056583668E-01  0.00000E+00  9.000E+00
      21     1     1     2   511   501  9.410238062E-01 -5.641317175E+00 -1.177362460E+00  5.839192379E+00  9.185692672E-08  0.00000E+00  9.000E+00
#pdf   2 -2 0.23622321E-02 0.23392249E-01 0.96636373E+02 0.11456620E+01 0.32100569E+00
#rwgt            1           7   308.62610926648273         54217137    18425459           0
</event>
<event>
      6  10013  3.31628E+03  3.43428E+01 -1.00000E+00  1.49037E-01
      -1    -1     0     0     0   501  0.000000000E+00  0.000000000E+00  1.091384329E+01  1.091384329E+01  0.000000000E+00  0.00000E+00  9.000E+00
       1    -1     0     0   511     0  0.000000000E+00  0.000000000E+00 -1.547220073E+03  1.547220073E+03  0.000000000E+00  0.00000E+00  9.000E+00
      23     2     1     2     0     0 -3.343261259E+01 -7.854256644E+00 -1.838115135E+02  2.052032506E+02  8.451196726E+01  0.00000E+00  9.000E+00
      13     1     3     3     0     0 -1.410173662E+01 -3.969566832E+00 -1.848772914E+02  1.854568426E+02  1.056583668E-01  0.00000E+00  9.000E+00
     -13     1     3     3     0     0 -1.933087597E+01 -3.884689812E+00  1.065777881E+00  1.974640794E+01  1.056583668E-01  0.00000E+00  9.000E+00
      21     1     1     2   511   501  3.343261259E+01  7.854256644E+00 -1.352494716E+03  1.352930666E+03  1.525878906E-05  0.00000E+00  9.000E+00
#pdf  -1  1 0.15244558E-02 0.27722659E-01 0.84511967E+02 0.12182590E+01 0.51065139E+00
#rwgt            1           5   356.03449515251430         54217137    18425542           0
</event>
<event>
      6  10013  3.31628E+03  2.19832E+01 -1.00000E+00  1.63011E-01
       1    -1     0     0   511     0  0.000000000E+00  0.000000000E+00  7.168471563E+02  7.168471563E+02  0.000000000E+00  0.00000E+00  9.000E+00
      -1    -1     0     0     0   501  0.000000000E+00  0.000000000E+00 -4.884142770E+00  4.884142770E+00  0.000000000E+00  0.00000E+00  9.000E+00
      23     2     1     2     0     0  2.192917538E+01 -1.540364350E+00  4.948838495E+02  5.035418747E+02  9.033899277E+01  0.00000E+00  9.000E+00
      13     1     3     3     0     0 -2.196078463E+01 -1.084193175E+01  4.339459398E+01  4.982896242E+01  1.056583668E-01  0.00000E+00  9.000E+00
     -13     1     3     3     0     0  4.388996001E+01  9.301567404E+00  4.514892555E+02  4.537129123E+02  1.056583668E-01  0.00000E+00  9.000E+00
      21     1     1     2   511   501 -2.192917538E+01  1.540364350E+00  2.170791641E+02  2.181894244E+02  2.697398305E-06  0.00000E+00  9.000E+00
#pdf   1 -1 0.74624314E-01 0.64711793E-03 0.90338993E+02 0.39972193E+00 0.17207815E+01
#rwgt            1           6   1169.8025635601807         54217137    18425610           0
</event>
<event>
      6  10013  3.31628E+03  3.94294E+01 -1.00000E+00  1.45197E-01
       1    -1     0     0   501     0  0.000000000E+00  0.000000000E+00  2.877019804E+02  2.877019804E+02  0.000000000E+00  0.00000E+00  9.000E+00
      21    -1     0     0   511   501  0.000000000E+00  0.000000000E+00 -2.543271705E+01  2.543271705E+01  0.000000000E+00  0.00000E+00  9.000E+00
      23     2     1     2     0     0 -3.778758494E+01 -1.125950558E+01  8.378823674E+01  1.303502482E+02  9.173898047E+01  0.00000E+00  9.000E+00
      13     1     3     3     0     0 -2.932610489E+01  5.902670483E+00 -1.232263976E+01  3.235306108E+01  1.056583668E-01  0.00000E+00  9.000E+00
     -13     1     3     3     0     0 -8.461480058E+00 -1.716217607E+01  9.611087649E+01  9.799718708E+01  1.056583668E-01  0.00000E+00  9.000E+00
       1     1     1     2   511     0  3.778758494E+01  1.125950558E+01  1.784810266E+02  1.827844493E+02  0.000000000E+00  0.00000E+00  9.000E+00
#pdf   1 -1 0.15133593E-01 0.32906301E-02 0.91738980E+02 0.59866934E+00 0.89640695E+00
#rwgt            1           6   558.34000884701845         54217137    18425657           0
</event>
<event>
      6  10013  3.31628E+03  3.97982E+01 -1.00000E+00  1.44945E-01
      21    -1     0     0   511   501  0.000000000E+00  0.000000000E+00  7.277333009E+01  7.277333009E+01  0.000000000E+00  0.00000E+00  9.000E+00
       2    -1     0     0   501     0  0.000000000E+00  0.000000000E+00 -3.192260270E+02  3.192260270E+02  0.000000000E+00  0.00000E+00  9.000E+00
      23     2     1     2     0     0 -2.571008568E+01 -3.037907309E+01 -3.067172581E+02  3.197794574E+02  8.123748139E+01  0.00000E+00  9.000E+00
      13     1     3     3     0     0 -3.631188838E+01  8.003650931E+00 -6.567939965E+01  7.547454119E+01  1.056583668E-01  0.00000E+00  9.000E+00
     -13     1     3     3     0     0  1.060180269E+01 -3.838272402E+01 -2.410378584E+02  2.443049162E+02  1.056583668E-01  0.00000E+00  9.000E+00
       2     1     1     2   511     0  2.571008568E+01  3.037907309E+01  6.026456113E+01  7.221989972E+01  0.000000000E+00  0.00000E+00  9.000E+00
#pdf  -2  2 0.90232264E-03 0.43277717E-01 0.81237481E+02 0.14796375E+01 0.63709220E+00
#rwgt            1           4   1483.7663417576541         54217137    18425705           0
</event>
<event>
      6  10013  3.31628E+03  2.71346E+01 -1.00000E+00  1.56094E-01
       1    -1     0     0   501     0  0.000000000E+00  0.000000000E+00  1.470942302E+02  1.470942302E+02  0.000000000E+00  0.00000E+00  9.000E+00
      21    -1     0     0   511   501  0.000000000E+00  0.000000000E+00 -4.436504192E+01  4.436504192E+01  0.000000000E+00  0.00000E+00  9.000E+00
      23     2     1     2     0     0 -2.592833272E+01 -8.000593601E+00  1.249033060E+02  1.564167346E+02  9.016136137E+01  0.00000E+00  9.000E+00
      13     1     3     3     0     0  4.408129881E-01 -3.362408618E+01  1.128030038E+02  1.177085482E+02  1.056583668E-01  0.00000E+00  9.000E+00
     -13     1     3     3     0     0 -2.636914571E+01  2.562349257E+01  1.210030215E+01  3.870818638E+01  1.056583668E-01  0.00000E+00  9.000E+00
       1     1     1     2   511     0  2.592833272E+01  8.000593601E+00 -2.217411774E+01  3.504253748E+01  0.000000000E+00  0.00000E+00  9.000E+00
#pdf   1 -1 0.20721902E-01 0.23212643E-02 0.90161361E+02 0.54985796E+00 0.10360285E+01
#rwgt            1           6   1003.5468669967202         54217137    18425760           0
</event>
<event>
      6  10013  3.31628E+03  7.03601E+00 -1.00000E+00  2.15168E-01
      21    -1     0     0   511   501  0.000000000E+00  0.000000000E+00  1.848996884E+01  1.848996884E+01  0.000000000E+00  0.00000E+00  9.000E+00
       3    -1     0     0   501     0  0.000000000E+00  0.000000000E+00 -1.381674387E+02  1.381674387E+02  0.000000000E+00  0.00000E+00  9.000E+00
      23     2     1     2     0     0 -2.894225856E+00  6.413175858E+00 -9.322049337E+01  1.292808305E+02  8.929707371E+01  0.00000E+00  9.000E+00
      13     1     3     3     0     0 -1.406225132E+01 -1.956104279E+01 -9.772494531E+01  1.006506702E+02  1.056583668E-01  0.00000E+00  9.000E+00
     -13     1     3     3     0     0  1.116802546E+01  2.597421864E+01  4.504451946E+00  2.863016028E+01  1.056583668E-01  0.00000E+00  9.000E+00
       3     1     1     2   511     0  2.894225856E+00 -6.413175858E+00 -2.645697648E+01  2.737657707E+01  0.000000000E+00  0.00000E+00  9.000E+00
#pdf  -3  3 0.27653014E-02 0.17062603E-01 0.89297074E+02 0.91577270E+00 0.35526371E+00
#rwgt            1           3   484.43757317830756         54217137    18425811           0
</event>
<event>
      6  10013  3.31628E+03  1.45503E+01 -1.00000E+00  1.78590E-01
      21    -1     0     0   501   511  0.000000000E+00  0.000000000E+00  4.334948121E+01  4.334948121E+01  0.000000000E+00  0.00000E+00  9.000E+00
      -3    -1     0     0     0   501  0.000000000E+00  0.000000000E+00 -8.707499207E+01  8.707499207E+01  0.000000000E+00  0.00000E+00  9.000E+00
      23     2     1     2     0     0 -1.308325968E+01 -6.367035797E+00 -2.847387783E+01  1.093454994E+02  1.045656048E+02  0.00000E+00  9.000E+00
      13     1     3     3     0     0 -4.148363415E+01  1.218134935E+01  2.201681042E+01  4.851832931E+01  1.056583668E-01  0.00000E+00  9.000E+00
     -13     1     3     3     0     0  2.840037447E+01 -1.854838514E+01 -5.049068825E+01  6.082717012E+01  1.056583668E-01  0.00000E+00  9.000E+00
      -3     1     1     2     0   511  1.308325968E+01  6.367035797E+00 -1.525163303E+01  2.107897385E+01  0.000000000E+00  0.00000E+00  9.000E+00
#pdf   3 -3 0.61615281E-02 0.10500321E-01 0.10456560E+03 0.63906393E+00 0.48074532E+00
#rwgt            1           8   516.32951737361407         54217137    18425935           0
</event>
<event>
      6  10013  3.31628E+03  2.58748E+01 -1.00000E+00  1.57603E-01
      21    -1     0     0   511   501  0.000000000E+00  0.000000000E+00  7.114071614E+01  7.114071614E+01  0.000000000E+00  0.00000E+00  9.000E+00
       1    -1     0     0   501     0  0.000000000E+00  0.000000000E+00 -6.254859612E+01  6.254859612E+01  0.000000000E+00  0.00000E+00  9.000E+00
      23     2     1     2     0     0 -2.492939057E+01 -6.930452698E+00  3.201935921E+01  9.878456723E+01  8.979780437E+01  0.00000E+00  9.000E+00
      13     1     3     3     0     0  3.279109231E+01  4.574859203E-01  9.272619499E-01  3.280756020E+01  1.056583668E-01  0.00000E+00  9.000E+00
     -13     1     3     3     0     0 -5.772048288E+01 -7.387938619E+00  3.109209727E+01  6.597700703E+01  1.056583668E-01  0.00000E+00  9.000E+00
       1     1     1     2   511     0  2.492939057E+01  6.930452698E+00 -2.342723919E+01  3.490474502E+01  0.000000000E+00  0.00000E+00  9.000E+00
#pdf  -1  1 0.96684677E-02 0.49349991E-02 0.89797804E+02 0.54932728E+00 0.84790620E+00
#rwgt            1           5   648.33309948780447         54217137    18426021           0
</event>
<event>
      6  10013  3.31628E+03  2.69629E+00 -1.00000E+00  3.11527E-01
      -3    -1     0     0     0   511  0.000000000E+00  0.000000000E+00  1.024437775E+02  1.024437775E+02  0.000000000E+00  0.00000E+00  9.000E+00
       3    -1     0     0   501     0  0.000000000E+00  0.000000000E+00 -2.134595807E+01  2.134595807E+01  0.000000000E+00  0.00000E+00  9.000E+00
      23     2     1     2     0     0  9.776506519E-02 -2.694513663E+00  7.795722994E+01  1.196505008E+02  9.072840068E+01  0.00000E+00  9.000E+00
      13     1     3     3     0     0 -3.347512971E+01 -2.609243364E+01  1.591684120E+01  4.532942091E+01  1.056583668E-01  0.00000E+00  9.000E+00
     -13     1     3     3     0     0  3.357289478E+01  2.339791997E+01  6.204038874E+01  7.432107993E+01  1.056583668E-01  0.00000E+00  9.000E+00
      21     1     1     2   501   511 -9.776506519E-02  2.694513663E+00  3.140589490E+00  4.139234740E+00  0.000000000E+00  0.00000E+00  9.000E+00
#pdf  -3  3 0.15193887E-01 0.32057594E-02 0.90728401E+02 0.38263295E+00 0.85907248E+00
#rwgt            1           3   463.54912465567168         54217137    18426074           0
</event>
<event>
      6  10013  3.31628E+03  5.19318E+00 -1.00000E+00  2.35589E-01
      -1    -1     0     0     0   501  0.000000000E+00  0.000000000E+00  1.427349837E+01  1.427349837E+01  0.000000000E+00  0.00000E+00  9.000E+00
       1    -1     0     0   511     0  0.000000000E+00  0.000000000E+00 -1.567833917E+01  1.567833917E+01  0.000000000E+00  0.00000E+00  9.000E+00
      23     2     1     2     0     0  5.064739196E+00  1.147823376E+00  2.077963373E+00  2.369891770E+01  2.302936575E+01  0.00000E+00  9.000E+00
      13     1     3     3     0     0 -4.974572790E+00 -3.534067535E+00  8.823777965E+00  1.072875711E+01  1.056583668E-01  0.00000E+00  9.000E+00
     -13     1     3     3     0     0  1.003931199E+01  4.681890911E+00 -6.745814592E+00  1.297016060E+01  1.056583668E-01  0.00000E+00  9.000E+00
      21     1     1     2   511   501 -5.064739196E+00 -1.147823376E+00 -3.482804170E+00  6.252919839E+00  8.429369702E-08  0.00000E+00  9.000E+00
#pdf  -1  1 0.19342668E-02 0.16224110E-02 0.23029366E+02 0.88632851E+00 0.99318521E+00
#rwgt            1           5   214.03430859957291         54217137    18426222           0
</event>
<event>
      6  10013  3.31628E+03  1.59379E+01 -1.00000E+00  1.74891E-01
       2    -1     0     0   501     0  0.000000000E+00  0.000000000E+00  1.266290217E+02  1.266290217E+02  0.000000000E+00  0.00000E+00  9.000E+00
      21    -1     0     0   511   501  0.000000000E+00  0.000000000E+00 -4.854172832E+00  4.854172832E+00  0.000000000E+00  0.00000E+00  9.000E+00
      23     2     1     2     0     0  3.430350847E-01  1.593419324E+01  8.195299726E+01  8.859035068E+01  2.963005717E+01  0.00000E+00  9.000E+00
      13     1     3     3     0     0  7.799198670E+00  1.115171690E+01  1.219902004E+01  1.827609213E+01  1.056583668E-01  0.00000E+00  9.000E+00
     -13     1     3     3     0     0 -7.456163585E+00  4.782476338E+00  6.975397721E+01  7.031425856E+01  1.056583668E-01  0.00000E+00  9.000E+00
       2     1     1     2   511     0 -3.430350847E-01 -1.593419324E+01  3.982185158E+01  4.289284381E+01  0.000000000E+00  0.00000E+00  9.000E+00
#pdf   2 -2 0.11553380E-01 0.44964443E-03 0.29630057E+02 0.68378846E+00 0.15397954E+01
#rwgt            1           7   1043.3516911841655         54217137    18426257           0
</event>
<event>
      6  10013  3.31628E+03  1.51802E+01 -1.00000E+00  1.76849E-01
      21    -1     0     0   511   501  0.000000000E+00  0.000000000E+00  3.442945466E-01  3.442945466E-01  0.000000000E+00  0.00000E+00  9.000E+00
       2    -1     0     0   501     0  0.000000000E+00  0.000000000E+00 -1.954037323E+03  1.954037323E+03  0.000000000E+00  0.00000E+00  9.000E+00
      23     2     1     2     0     0  1.106401820E+01  1.039359353E+01 -1.689243969E+03  1.689497220E+03  2.500457146E+01  0.00000E+00  9.000E+00
      13     1     3     3     0     0 -3.530601251E+00  3.122876376E-01 -1.053154296E+03  1.053160266E+03  1.056583668E-01  0.00000E+00  9.000E+00
     -13     1     3     3     0     0  1.459461945E+01  1.008130589E+01 -6.360896728E+02  6.363369537E+02  1.056583668E-01  0.00000E+00  9.000E+00
       2     1     1     2   511     0 -1.106401820E+01 -1.039359353E+01 -2.644490593E+02  2.648843979E+02  0.000000000E+00  0.00000E+00  9.000E+00
#pdf  -2  2 0.16652282E-04 0.22216640E+00 0.25004571E+02 0.40809537E+01 0.51166304E+00
#rwgt            1           4   3317.1320617681008         54217137    18426354           0
</event>
<event>
      6  10013  3.31628E+03  5.90397E+00 -1.00000E+00  2.26486E-01
       1    -1     0     0   501     0  0.000000000E+00  0.000000000E+00  7.971643172E+00  7.971643172E+00  0.000000000E+00  0.00000E+00  9.000E+00
      21    -1     0     0   511   501  0.000000000E+00  0.000000000E+00 -3.014276216E+02  3.014276216E+02  0.000000000E+00  0.00000E+00  9.000E+00
      23     2     1     2     0     0 -3.851467223E+00 -4.474717461E+00 -2.399599855E+02  2.555784681E+02  8.777643086E+01  0.00000E+00  9.000E+00
      13     1     3     3     0     0 -3.907620394E+01 -9.153641942E+00 -6.027966535E+01  7.241814754E+01  1.056583668E-01  0.00000E+00  9.000E+00
     -13     1     3     3     0     0  3.522473671E+01  4.678924481E+00 -1.796803202E+02  1.831603206E+02  1.056583668E-01  0.00000E+00  9.000E+00
       1     1     1     2   511     0  3.851467223E+00  4.474717461E+00 -5.349599291E+01  5.382079667E+01  0.000000000E+00  0.00000E+00  9.000E+00
#pdf   1 -1 0.11987132E-02 0.38032408E-01 0.87776431E+02 0.13969314E+01 0.25835264E+00
#rwgt            1           6   488.46418767563523         54217137    18426412           0
</event>
<event>
      6  10013  3.31628E+03  1.79524E+00 -1.00000E+00  3.86232E-01
       2    -1     0     0   511     0  0.000000000E+00  0.000000000E+00  1.670212043E+00  1.670212043E+00  0.000000000E+00  0.00000E+00  9.000E+00
      -2    -1     0     0     0   501  0.000000000E+00  0.000000000E+00 -2.669752648E+02  2.669752648E+02  0.000000000E+00  0.00000E+00  9.000E+00
      23     2     1     2     0     0  1.620446823E+00  7.726890697E-01 -2.573997592E+02  2.605389016E+02  4.028225791E+01  0.00000E+00  9.000E+00
      13     1     3     3     0     0  1.262246797E+01 -6.514439186E+00 -3.534847778E+01  3.809580897E+01  1.056583668E-01  0.00000E+00  9.000E+00
     -13     1     3     3     0     0 -1.100202115E+01  7.287128256E+00 -2.220512814E+02  2.224430926E+02  1.056583668E-01  0.00000E+00  9.000E+00
      21     1     1     2   511   501 -1.620446823E+00 -7.726890697E-01 -7.905293575E+00  8.106575283E+00  1.460009660E-07  0.00000E+00  9.000E+00
#pdf   2 -2 0.24123304E-03 0.39801928E-01 0.40282258E+02 0.20862528E+01 0.21755050E+00
#rwgt            1           7   338.46328682905596         54217137    18426652           0
</event>
<event>
      6  10013  3.31628E+03  1.64158E+01 -1.00000E+00  1.73726E-01
       1    -1     0     0   501     0  0.000000000E+00  0.000000000E+00  2.432832254E+02  2.432832254E+02  0.000000000E+00  0.00000E+00  9.000E+00
      21    -1     0     0   511   501  0.000000000E+00  0.000000000E+00 -1.277706668E+01  1.277706668E+01  0.000000000E+00  0.00000E+00  9.000E+00
      23     2     1     2     0     0  1.582354294E+01  4.369479663E+00  2.071458142E+02  2.275088901E+02  9.263600723E+01  0.00000E+00  9.000E+00
      13     1     3     3     0     0 -1.526194330E+00  4.234033936E+01  1.551331067E+02  1.608145688E+02  1.056583668E-01  0.00000E+00  9.000E+00
     -13     1     3     3     0     0  1.734973727E+01 -3.797085969E+01  5.201270758E+01  6.669432122E+01  1.056583668E-01  0.00000E+00  9.000E+00
       1     1     1     2   511     0 -1.582354294E+01 -4.369479663E+00  2.336034450E+01  2.855140205E+01  0.000000000E+00  0.00000E+00  9.000E+00
#pdf   1 -1 0.32922058E-01 0.15423608E-02 0.92636007E+02 0.49096676E+00 0.12291368E+01
#rwgt            1           6   894.90061705641426         54217137    18426809           0
</event>
<event>
      6  10013  3.31628E+03  6.18307E+00 -1.00000E+00  2.23387E-01
       1    -1     0     0   501     0  0.000000000E+00  0.000000000E+00  8.284231547E+00  8.284231547E+00  0.000000000E+00  0.00000E+00  9.000E+00
      21    -1     0     0   511   501  0.000000000E+00  0.000000000E+00 -5.741266358E+02  5.741266358E+02  0.000000000E+00  0.00000E+00  9.000E+00
      23     2     1     2     0     0 -1.376425437E+00  6.027919571E+00 -2.516024210E+02  2.681100601E+02  9.241750761E+01  0.00000E+00  9.000E+00
      13     1     3     3     0     0 -4.365850688E+01  1.998808599E+01 -1.249614819E+02  1.338692344E+02  1.056583668E-01  0.00000E+00  9.000E+00
     -13     1     3     3     0     0  4.228208144E+01 -1.396016642E+01 -1.266409391E+02  1.342408257E+02  1.056583668E-01  0.00000E+00  9.000E+00
       1     1     1     2   511     0  1.376425437E+00 -6.027919571E+00 -3.142399833E+02  3.143008073E+02  0.000000000E+00  0.00000E+00  9.000E+00
#pdf   1 -1 0.12669860E-02 0.39888710E-01 0.92417508E+02 0.13798916E+01 0.25044361E+00
#rwgt            1           6   452.56494030105841         54217137    18426872           0
</event>
<event>
      6  10013  3.31628E+03  2.32965E+00 -1.00000E+00  3.34556E-01
      21    -1     0     0   511   501  0.000000000E+00  0.000000000E+00  1.147585403E+01  1.147585403E+01  0.000000000E+00  0.00000E+00  9.000E+00
       2    -1     0     0   501     0  0.000000000E+00  0.000000000E+00 -1.281345792E+02  1.281345792E+02  0.000000000E+00  0.00000E+00  9.000E+00
      23     2     1     2     0     0  9.628265514E-01  2.121376956E+00 -1.267507813E+02  1.292529784E+02  2.520207521E+01  0.00000E+00  9.000E+00
      13     1     3     3     0     0 -7.483298842E+00  1.214406629E+00 -1.118027216E+02  1.120595122E+02  1.056583668E-01  0.00000E+00  9.000E+00
     -13     1     3     3     0     0  8.446125394E+00  9.069703272E-01 -1.494805966E+01  1.719346622E+01  1.056583668E-01  0.00000E+00  9.000E+00
       2     1     1     2   511     0 -9.628265514E-01 -2.121376956E+00  1.009205608E+01  1.035745486E+01  0.000000000E+00  0.00000E+00  9.000E+00
#pdf  -2  2 0.19165958E-03 0.19608996E-01 0.25202075E+02 0.19441958E+01 0.63990776E+00
#rwgt            1           4   1141.8117799254683         54217137    18427048           0
</event>
<event>
      6  10013  3.31628E+03  7.53670E+00 -1.00000E+00  2.11048E-01
      -5    -1     0     0     0   501  0.000000000E+00  0.000000000E+00  2.035532772E+01  2.035532772E+01  0.000000000E+00  0.00000E+00  9.000E+00
      21    -1     0     0   501   511  0.000000000E+00  0.000000000E+00 -1.382276357E+02  1.382276357E+02  0.000000000E+00  0.00000E+00  9.000E+00
      23     2     1     2     0     0  4.681075203E+00 -5.906722230E+00 -8.795666164E+01  1.277325545E+02  9.231700455E+01  0.00000E+00  9.000E+00
      13     1     3     3     0     0  3.199591304E+01 -3.825384054E+01 -5.356498133E+01  7.318683731E+01  1.056583668E-01  0.00000E+00  9.000E+00
     -13     1     3     3     0     0 -2.731483784E+01  3.234711831E+01 -3.439168031E+01  5.454571722E+01  1.056583668E-01  0.00000E+00  9.000E+00
      -5     1     1     2     0   511 -4.681075203E+00  5.906722230E+00 -2.991564631E+01  3.085040886E+01  0.000000000E+00  0.00000E+00  9.000E+00
#pdf  -5  5 0.30495384E-02 0.16536462E-01 0.92317005E+02 0.47501057E+00 0.14924536E+00
#rwgt            1           1   126.44328456302122         54217137    18427163           0
</event>
<event>
      6  10013  3.31628E+03  1.19476E+00 -1.00000E+00  5.39409E-01
      -2    -1     0     0     0   511  0.000000000E+00  0.000000000E+00  6.927829490E-02  6.927829490E-02  0.000000000E+00  0.00000E+00  9.000E+00
       2    -1     0     0   501     0  0.000000000E+00  0.000000000E+00 -2.369815146E+03  2.369815146E+03  0.000000000E+00  0.00000E+00  9.000E+00
      23     2     1     2     0     0  9.699007136E-01 -6.976661282E-01 -2.341015952E+03  2.341129677E+03  2.304449529E+01  0.00000E+00  9.000E+00
      13     1     3     3     0     0  1.118840078E+01  3.869743973E+00 -1.274567108E+03  1.274622092E+03  1.056583668E-01  0.00000E+00  9.000E+00
     -13     1     3     3     0     0 -1.021850007E+01 -4.567410101E+00 -1.066448844E+03  1.066507584E+03  1.056583668E-01  0.00000E+00  9.000E+00
      21     1     1     2   501   511 -9.699007136E-01  6.976661282E-01 -2.872991545E+01  2.875474721E+01  4.768371582E-07  0.00000E+00  9.000E+00
#pdf  -2  2 0.87363301E-05 0.35968196E+00 0.23044495E+02 0.47606187E+01 0.31413977E+00
#rwgt            1           4   8293.1097101835530         54217137    18427680           0
</event>
<event>
      6  10013  3.31628E+03  1.21887E+01 -1.00000E+00  1.86266E-01
      21    -1     0     0   511   501  0.000000000E+00  0.000000000E+00  6.194341084E-01  6.194341084E-01  0.000000000E+00  0.00000E+00  9.000E+00
       2    -1     0     0   501     0  0.000000000E+00  0.000000000E+00 -5.851054279E+02  5.851054279E+02  0.000000000E+00  0.00000E+00  9.000E+00
      23     2     1     2     0     0  9.745067417E+00  7.320987833E+00 -4.071351178E+02  4.079556397E+02  2.280869521E+01  0.00000E+00  9.000E+00
      13     1     3     3     0     0  1.624227619E+01  9.125521445E+00 -2.603956524E+02  2.610612833E+02  1.056583668E-01  0.00000E+00  9.000E+00
     -13     1     3     3     0     0 -6.497208776E+00 -1.804533612E+00 -1.467394654E+02  1.468943564E+02  1.056583668E-01  0.00000E+00  9.000E+00
       2     1     1     2   511     0 -9.745067417E+00 -7.320987833E+00 -1.773508760E+02  1.777692224E+02  0.000000000E+00  0.00000E+00  9.000E+00
#pdf  -2  2 0.55667175E-04 0.55298710E-01 0.22808695E+02 0.27557734E+01 0.62717592E+00
#rwgt            1           4   2484.8982013494960         54217137    18427955           0
</event>
<event>
      6  10013  3.31628E+03  2.81173E+00 -1.00000E+00  3.05531E-01
      -1    -1     0     0     0   501  0.000000000E+00  0.000000000E+00  8.920176253E+00  8.920176253E+00  0.000000000E+00  0.00000E+00  9.000E+00
       1    -1     0     0   511     0  0.000000000E+00  0.000000000E+00 -2.397570039E+02  2.397570039E+02  0.000000000E+00  0.00000E+00  9.000E+00
      23     2     1     2     0     0 -2.735293946E+00  6.511522019E-01 -2.168014201E+02  2.343629041E+02  8.896746178E+01  0.00000E+00  9.000E+00
      13     1     3     3     0     0  1.143292238E+01  3.057526705E+01 -2.899683103E+01  4.366218092E+01  1.056583668E-01  0.00000E+00  9.000E+00
     -13     1     3     3     0     0 -1.416821633E+01 -2.992411485E+01 -1.878045890E+02  1.907007232E+02  1.056583668E-01  0.00000E+00  9.000E+00
      21     1     1     2   511   501  2.735293946E+00 -6.511522019E-01 -1.403540759E+01  1.431427604E+01  1.685873940E-07  0.00000E+00  9.000E+00
#pdf  -1  1 0.13502093E-02 0.34687629E-01 0.88967462E+02 0.12886909E+01 0.48472689E+00
#rwgt            1           5   671.13851741774545         54217137    18428019           0
</event>
<event>
      6  10013  3.31628E+03  1.15450E+01 -1.00000E+00  1.88756E-01
      -4    -1     0     0     0   501  0.000000000E+00  0.000000000E+00  7.234400505E+01  7.234400505E+01  0.000000000E+00  0.00000E+00  9.000E+00
       4    -1     0     0   511     0  0.000000000E+00  0.000000000E+00 -3.670688478E+01  3.670688478E+01  0.000000000E+00  0.00000E+00  9.000E+00
      23     2     1     2     0     0  9.176623808E+00  7.005508444E+00  3.255346741E+01  9.710114138E+01  9.075029390E+01  0.00000E+00  9.000E+00
      13     1     3     3     0     0  2.227541546E+01  4.553086591E+01  2.033567873E+01  5.461506090E+01  1.056583668E-01  0.00000E+00  9.000E+00
     -13     1     3     3     0     0 -1.309879165E+01 -3.852535747E+01  1.221778868E+01  4.248608048E+01  1.056583668E-01  0.00000E+00  9.000E+00
      21     1     1     2   511   501 -9.176623808E+00 -7.005508444E+00  3.083652855E+00  1.194974845E+01  1.264405455E-07  0.00000E+00  9.000E+00
#pdf  -4  4 0.98936916E-02 0.49255077E-02 0.90750294E+02 0.35187198E+00 0.53757089E+00
#rwgt            1           2   186.65781895461356         54217137    18428165           0
</event>
<event>
      6  10013  3.31628E+03  8.57335E+00 -1.00000E+00  2.03753E-01
      21    -1     0     0   511   501  0.000000000E+00  0.000000000E+00  3.985810058E+02  3.985810058E+02  0.000000000E+00  0.00000E+00  9.000E+00
       3    -1     0     0   501     0  0.000000000E+00  0.000000000E+00 -6.720586230E+00  6.720586230E+00  0.000000000E+00  0.00000E+00  9.000E+00
      23     2     1     2     0     0 -7.589112996E+00  3.988443495E+00  3.302684621E+02  3.431158096E+02  9.261587007E+01  0.00000E+00  9.000E+00
      13     1     3     3     0     0  3.620842490E+01  2.278450815E+01  1.967088287E+02  2.013071243E+02  1.056583668E-01  0.00000E+00  9.000E+00
     -13     1     3     3     0     0 -4.379753790E+01 -1.879606465E+01  1.335596335E+02  1.418086853E+02  1.056583668E-01  0.00000E+00  9.000E+00
       3     1     1     2   511     0  7.589112996E+00 -3.988443495E+00  6.159195749E+01  6.218578249E+01  0.000000000E+00  0.00000E+00  9.000E+00
#pdf  -3  3 0.51578274E-01 0.98405033E-03 0.92615870E+02 0.14557106E+00 0.14214672E+01
#rwgt            1           3   246.47937687728998         54217137    18428226           0
</event>
<event>
      6  10013  3.31628E+03  1.94700E+01 -1.00000E+00  1.67295E-01
      21    -1     0     0   511   501  0.000000000E+00  0.000000000E+00  3.329441376E+01  3.329441376E+01  0.000000000E+00  0.00000E+00  9.000E+00
       3    -1     0     0   501     0  0.000000000E+00  0.000000000E+00 -1.004220768E+02  1.004220768E+02  0.000000000E+00  0.00000E+00  9.000E+00
      23     2     1     2     0     0 -1.197334119E+01 -1.535314601E+01 -4.163675782E+01  1.016405457E+02  9.065374195E+01  0.00000E+00  9.000E+00
      13     1     3     3     0     0 -4.179714337E+01 -3.639461458E+01 -3.155012336E+01  6.377296145E+01  1.056583668E-01  0.00000E+00  9.000E+00
     -13     1     3     3     0     0  2.982380218E+01  2.104146857E+01 -1.008663446E+01  3.786758421E+01  1.056583668E-01  0.00000E+00  9.000E+00
       3     1     1     2   511     0  1.197334119E+01  1.535314601E+01 -2.549090518E+01  3.207594486E+01  0.000000000E+00  0.00000E+00  9.000E+00
#pdf  -3  3 0.45127681E-02 0.10775607E-01 0.90653742E+02 0.73338581E+00 0.46881413E+00
#rwgt            1           3   412.39820537378552         54217137    18428263           0
</event>
<event>
      6  10013  3.31628E+03  3.15967E+01 -1.00000E+00  1.51458E-01
      21    -1     0     0   511   501  0.000000000E+00  0.000000000E+00  1.923261982E+00  1.923261982E+00  0.000000000E+00  0.00000E+00  9.000E+00
       2    -1     0     0   501     0  0.000000000E+00  0.000000000E+00 -7.718007727E+02  7.718007727E+02  0.000000000E+00  0.00000E+00  9.000E+00
      23     2     1     2     0     0  2.266813622E+01 -2.201151785E+01 -4.643042252E+02  4.665215215E+02  3.264299487E+01  0.00000E+00  9.000E+00
      13     1     3     3     0     0  7.246533746E+00  2.389849763E-02 -1.795228408E+01  1.935997133E+01  1.056583668E-01  0.00000E+00  9.000E+00
     -13     1     3     3     0     0  1.542160247E+01 -2.203541635E+01 -4.463519412E+02  4.471615502E+02  1.056583668E-01  0.00000E+00  9.000E+00
       2     1     1     2   511     0 -2.266813622E+01  2.201151785E+01 -3.055732854E+02  3.072025132E+02  0.000000000E+00  0.00000E+00  9.000E+00
#pdf  -2  2 0.12255310E-03 0.51448057E-01 0.32642995E+02 0.24240773E+01 0.62898230E+00
#rwgt            1           4   2030.0812616347421         54217137    18428381           0
</event>
<event>
      6  10013  3.31628E+03  6.33169E+00 -1.00000E+00  2.21827E-01
       1    -1     0     0   511     0  0.000000000E+00  0.000000000E+00  1.005723683E+01  1.005723683E+01  0.000000000E+00  0.00000E+00  9.000E+00
      -1    -1     0     0     0   501  0.000000000E+00  0.000000000E+00 -3.802956889E+02  3.802956889E+02  0.000000000E+00  0.00000E+00  9.000E+00
      23     2     1     2     0     0 -5.367219520E+00  3.359059200E+00 -3.723046078E+02  3.836926462E+02  9.257016504E+01  0.00000E+00  9.000E+00
      13     1     3     3     0     0 -1.276469609E+01 -1.811354486E-01 -1.564607653E+00  1.286193754E+01  1.056583668E-01  0.00000E+00  9.000E+00
     -13     1     3     3     0     0  7.397476572E+00  3.540194648E+00 -3.707400001E+02  3.708307087E+02  1.056583668E-01  0.00000E+00  9.000E+00
      21     1     1     2   511   501  5.367219520E+00 -3.359059200E+00  2.066155692E+00  6.660279531E+00  3.125693942E-07  0.00000E+00  9.000E+00
#pdf   1 -1 0.87396097E-03 0.58018077E-01 0.92570165E+02 0.15806369E+01 0.19115958E+00
#rwgt            1           6   1009.8447347111411         54217137    18428432           0
</event>
<event>
      6  10013  3.31628E+03  1.90563E+00 -1.00000E+00  3.72931E-01
       2    -1     0     0   501     0  0.000000000E+00  0.000000000E+00  1.067068663E+03  1.067068663E+03  0.000000000E+00  0.00000E+00  9.000E+00
      -2    -1     0     0     0   511  0.000000000E+00  0.000000000E+00 -5.857772928E-01  5.857772928E-01  0.000000000E+00  0.00000E+00  9.000E+00
      23     2     1     2     0     0 -9.280814105E-01 -1.664364158E+00  1.036831361E+03  1.037941744E+03  4.795998285E+01  0.00000E+00  9.000E+00
      13     1     3     3     0     0  2.087937519E+00  7.556227657E+00  2.836084687E+01  2.942456216E+01  1.056583668E-01  0.00000E+00  9.000E+00
     -13     1     3     3     0     0 -3.016018929E+00 -9.220591815E+00  1.008470514E+03  1.008517181E+03  1.056583668E-01  0.00000E+00  9.000E+00
      21     1     1     2   501   511  9.280814105E-01  1.664364158E+00  2.965152405E+01  2.971269631E+01  0.000000000E+00  0.00000E+00  9.000E+00
#pdf   2 -2 0.15947210E+00 0.85346680E-04 0.47959983E+02 0.56253754E+00 0.30481775E+01
#rwgt            1           7   6810.3734092910681         54217137    18428516           0
</event>
<event>
      6  10013  3.31628E+03  7.84128E+00 -1.00000E+00  2.08748E-01
       1    -1     0     0   511     0  0.000000000E+00  0.000000000E+00  1.603628763E+01  1.603628763E+01  0.000000000E+00  0.00000E+00  9.000E+00
      -1    -1     0     0     0   501  0.000000000E+00  0.000000000E+00 -1.665785784E+02  1.665785784E+02  0.000000000E+00  0.00000E+00  9.000E+00
      23     2     1     2     0     0  4.999830417E+00 -6.040475472E+00 -1.490846030E+02  1.746392468E+02  9.061546248E+01  0.00000E+00  9.000E+00
      13     1     3     3     0     0 -2.945665387E+01  1.313832307E+00 -1.324219041E+02  1.356650008E+02  1.056583668E-01  0.00000E+00  9.000E+00
     -13     1     3     3     0     0  3.445648428E+01 -7.354307779E+00 -1.666269891E+01  3.897424599E+01  1.056583668E-01  0.00000E+00  9.000E+00
      21     1     1     2   511   501 -4.999830417E+00  6.040475472E+00 -1.457687801E+00  7.975619214E+00  1.942873718E-07  0.00000E+00  9.000E+00
#pdf   1 -1 0.19584231E-02 0.24809122E-01 0.90615462E+02 0.11748654E+01 0.33557808E+00
#rwgt            1           6   378.97404907179879         54217137    18428696           0
</event>
<event>
      6  10013  3.31628E+03  2.71906E+00 -1.00000E+00  3.10304E-01
      -1    -1     0     0     0   501  0.000000000E+00  0.000000000E+00  7.111287216E+00  7.111287216E+00  0.000000000E+00  0.00000E+00  9.000E+00
       1    -1     0     0   511     0  0.000000000E+00  0.000000000E+00 -3.227341162E+02  3.227341162E+02  0.000000000E+00  0.00000E+00  9.000E+00
      23     2     1     2     0     0  2.634628571E+00 -6.723401513E-01 -2.989035063E+02  3.129064229E+02  9.251880955E+01  0.00000E+00  9.000E+00
      13     1     3     3     0     0  2.815690482E+01 -2.913589072E+01 -2.347847275E+02  2.382553060E+02  1.056583668E-01  0.00000E+00  9.000E+00
     -13     1     3     3     0     0 -2.552227625E+01  2.846355057E+01 -6.411877875E+01  7.465111685E+01  1.056583668E-01  0.00000E+00  9.000E+00
      21     1     1     2   511   501 -2.634628571E+00  6.723401513E-01 -1.671932273E+01  1.693898053E+01  4.129530925E-07  0.00000E+00  9.000E+00
#pdf  -1  1 0.10766826E-02 0.47041991E-01 0.92518810E+02 0.14181558E+01 0.45120294E+00
#rwgt            1           5   995.71300937448757         54217137    18428780           0
</event>
<event>
      6  10013  3.31628E+03  4.48812E+00 -1.00000E+00  2.52120E-01
       1    -1     0     0   501     0  0.000000000E+00  0.000000000E+00  1.389190293E+03  1.389190293E+03  0.000000000E+00  0.00000E+00  9.000E+00
      21    -1     0     0   511   501  0.000000000E+00  0.000000000E+00 -1.788687537E+00  1.788687537E+00  0.000000000E+00  0.00000E+00  9.000E+00
      23     2     1     2     0     0 -7.902914838E-01  4.417995708E+00  1.367511640E+03  1.370588935E+03  9.168314386E+01  0.00000E+00  9.000E+00
      13     1     3     3     0     0  4.379617237E+01 -9.379758595E+00  6.116669130E+02  6.133045803E+02  1.056583668E-01  0.00000E+00  9.000E+00
     -13     1     3     3     0     0 -4.458646385E+01  1.379775430E+01  7.558447274E+02  7.572843547E+02  1.056583668E-01  0.00000E+00  9.000E+00
       1     1     1     2   511     0  7.902914838E-01 -4.417995708E+00  1.988996499E+01  2.039004547E+01  0.000000000E+00  0.00000E+00  9.000E+00
#pdf   1 -1 0.21037121E+00 0.23643185E-03 0.91683144E+02 0.21903510E+00 0.25110684E+01
#rwgt            1           6   729.55056826015220         54217137    18428919           0
</event>
<event>
      6  10013  3.31628E+03  5.83189E+00 -1.00000E+00  2.27326E-01
      -1    -1     0     0     0   511  0.000000000E+00  0.000000000E+00  7.735598213E+01  7.735598213E+01  0.000000000E+00  0.00000E+00  9.000E+00
       1    -1     0     0   501     0  0.000000000E+00  0.000000000E+00 -1.149286597E+01  1.149286597E+01  0.000000000E+00  0.00000E+00  9.000E+00
      23     2     1     2     0     0  3.317477351E+00  4.796386957E+00  7.826411193E+00  3.051986640E+01  2.891709787E+01  0.00000E+00  9.000E+00
      13     1     3     3     0     0  6.755490107E+00  1.488117620E+01 -1.429936665E+00  1.640554583E+01  1.056583668E-01  0.00000E+00  9.000E+00
     -13     1     3     3     0     0 -3.438012756E+00 -1.008478924E+01  9.256347858E+00  1.411432057E+01  1.056583668E-01  0.00000E+00  9.000E+00
      21     1     1     2   501   511 -3.317477351E+00 -4.796386957E+00  5.803670496E+01  5.832898170E+01  0.000000000E+00  0.00000E+00  9.000E+00
#pdf  -1  1 0.28914963E-02 0.17111972E-02 0.28917098E+02 0.80051853E+00 0.10229050E+01
#rwgt            1           5   179.42614018091285         54217137    18429044           0
</event>
<event>
      6  10013 -3.31628E+03  1.25912E+01 -1.00000E+00  1.84807E-01
      21    -1     0     0   501   511  0.000000000E+00  0.000000000E+00  3.348262023E+02  3.348262023E+02  0.000000000E+00  0.00000E+00  9.000E+00
      -4    -1     0     0     0   501  0.000000000E+00  0.000000000E+00 -1.753827628E+00  1.753827628E+00  0.000000000E+00  0.00000E+00  9.000E+00
      23     2     1     2     0     0  1.124035807E+01  5.673752760E+00  1.661459365E+02  1.691793941E+02  2.930286756E+01  0.00000E+00  9.000E+00
      13     1     3     3     0     0  1.085214867E+00  1.225237326E+01  1.379418651E+02  1.384892329E+02  1.056583668E-01  0.00000E+00  9.000E+00
     -13     1     3     3     0     0  1.015514321E+01 -6.578620501E+00  2.820407144E+01  3.069016114E+01  1.056583668E-01  0.00000E+00  9.000E+00
      -4     1     1     2     0   511 -1.124035807E+01 -5.673752760E+00  1.669264381E+02  1.674006358E+02  0.000000000E+00  0.00000E+00  9.000E+00
#pdf   4 -4 0.23699053E-01 0.21438903E-03 0.29302868E+02 0.15913392E+00 0.15712128E+01
#rwgt            1           9  -823.51559428692576         54217137    18429089           0
</event>
<event>
      5  10013  3.31628E+03  8.94427E-01 -1.00000E+00  4.53186E-01
       4    -1     0     0   501     0  0.000000000E+00  0.000000000E+00  3.706786561E+01  3.706786561E+01  0.000000000E+00  0.00000E+00  9.000E+00
      -4    -1     0     0     0   501  0.000000000E+00  0.000000000E+00 -3.020442680E+00  3.020442680E+00  0.000000000E+00  0.00000E+00  9.000E+00
      23     2     1     2     0     0  0.000000000E+00  0.000000000E+00  3.404742293E+01  4.008830829E+01  2.116235935E+01  0.00000E+00  9.000E+00
      13     1     3     3     0     0  5.469303696E+00 -5.042980693E+00  3.127591609E+01  3.214870181E+01  1.056583668E-01  0.00000E+00  9.000E+00
     -13     1     3     3     0     0 -5.469303696E+00  5.042980693E+00  2.771506840E+00  7.939606479E+00  1.056583668E-01  0.00000E+00  9.000E+00
#pdf   4 -4 0.57027486E-02 0.46468349E-03 0.21162359E+02 0.37414384E+00 0.10617909E+01
#rwgt            1           9   343.60414574454597         54217137    18429153           0
</event>
<event>
      6  10013  3.31628E+03  1.32222E+00 -1.00000E+00  4.92128E-01
      -2    -1     0     0     0   511  0.000000000E+00  0.000000000E+00  2.570865884E-01  2.570865884E-01  0.000000000E+00  0.00000E+00  9.000E+00
       2    -1     0     0   501     0  0.000000000E+00  0.000000000E+00 -1.230704648E+03  1.230704648E+03  0.000000000E+00  0.00000E+00  9.000E+00
      23     2     1     2     0     0  8.706257552E-01  9.951264564E-01 -1.222860049E+03  1.223259877E+03  3.124546323E+01  0.00000E+00  9.000E+00
      13     1     3     3     0     0  6.886897549E+00 -1.219214503E+01 -3.508132671E+02  3.510926335E+02  1.056583668E-01  0.00000E+00  9.000E+00
     -13     1     3     3     0     0 -6.016271794E+00  1.318727148E+01 -8.720467815E+02  8.721672431E+02  1.056583668E-01  0.00000E+00  9.000E+00
      21     1     1     2   501   511 -8.706257552E-01 -9.951264564E-01 -7.587513096E+00  7.701858273E+00  1.192092896E-07  0.00000E+00  9.000E+00
#pdf  -2  2 0.30728499E-04 0.18799482E+00 0.31245463E+02 0.36869410E+01 0.54524956E+00
#rwgt            1           4   3009.4685350947002         54217137    18429421           0
</event>
<event>
      6  10013  3.31628E+03  4.06355E+00 -1.00000E+00  2.61761E-01
      -2    -1     0     0     0   501  0.000000000E+00  0.000000000E+00  7.278725286E+00  7.278725286E+00  0.000000000E+00  0.00000E+00  9.000E+00
       2    -1     0     0   511     0  0.000000000E+00  0.000000000E+00 -3.088594535E+02  3.088594535E+02  0.000000000E+00  0.00000E+00  9.000E+00
      23     2     1     2     0     0  2.744773800E+00  2.996441552E+00 -2.751234507E+02  2.893706616E+02  8.958769000E+01  0.00000E+00  9.000E+00
      13     1     3     3     0     0  2.421881528E+01  2.949433146E+01 -2.281549125E+02  2.313247542E+02  1.056583668E-01  0.00000E+00  9.000E+00
     -13     1     3     3     0     0 -2.147404148E+01 -2.649788990E+01 -4.696853820E+01  5.804590744E+01  1.056583668E-01  0.00000E+00  9.000E+00
      21     1     1     2   511   501 -2.744773800E+00 -2.996441552E+00 -2.645727747E+01  2.676751718E+01  5.840038640E-07  0.00000E+00  9.000E+00
#pdf  -2  2 0.10948137E-02 0.43378024E-01 0.89587690E+02 0.13936573E+01 0.63755706E+00
#rwgt            1           4   833.64992491954763         54217137    18429762           0
</event>
<event>
      6  10013  3.31628E+03  2.28987E+01 -1.00000E+00  1.61622E-01
       5    -1     0     0   501     0  0.000000000E+00  0.000000000E+00  2.335027207E+01  2.335027207E+01  0.000000000E+00  0.00000E+00  9.000E+00
      21    -1     0     0   511   501  0.000000000E+00  0.000000000E+00 -1.655270550E+02  1.655270550E+02  0.000000000E+00  0.00000E+00  9.000E+00
      23     2     1     2     0     0  1.892521809E+01  1.289139952E+01 -8.011227579E+01  1.227233014E+02  9.010371758E+01  0.00000E+00  9.000E+00
      13     1     3     3     0     0  1.398562726E+01 -3.440703073E+01 -1.082575196E+01  3.868655584E+01  1.056583668E-01  0.00000E+00  9.000E+00
     -13     1     3     3     0     0  4.939590824E+00  4.729843025E+01 -6.928652382E+01  8.403674559E+01  1.056583668E-01  0.00000E+00  9.000E+00
       5     1     1     2   511     0 -1.892521809E+01 -1.289139952E+01 -6.206450719E+01  6.615402568E+01  0.000000000E+00  0.00000E+00  9.000E+00
#pdf   5 -5 0.31767884E-02 0.15122042E-01 0.90103718E+02 0.46107390E+00 0.15991947E+00
#rwgt            1          10   112.48125764917394         54217137    18430000           0
</event>
<event>
      6  10013  3.31628E+03  6.04375E+00 -1.00000E+00  2.24905E-01
      -2    -1     0     0     0   501  0.000000000E+00  0.000000000E+00  4.920301794E+02  4.920301794E+02  0.000000000E+00  0.00000E+00  9.000E+00
      21    -1     0     0   501   511  0.000000000E+00  0.000000000E+00 -2.677056116E+00  2.677056116E+00  0.000000000E+00  0.00000E+00  9.000E+00
      23     2     1     2     0     0  4.878863175E+00 -3.567023665E+00  4.879223932E+02  4.884964423E+02  2.289072720E+01  0.00000E+00  9.000E+00
      13     1     3     3     0     0 -5.581964091E+00 -9.933460264E+00  2.221271698E+02  2.224192498E+02  1.056583668E-01  0.00000E+00  9.000E+00
     -13     1     3     3     0     0  1.046082727E+01  6.366436599E+00  2.657952235E+02  2.660771926E+02  1.056583668E-01  0.00000E+00  9.000E+00
      -2     1     1     2     0   511 -4.878863175E+00  3.567023665E+00  1.430730076E+00  6.210793206E+00  0.000000000E+00  0.00000E+00  9.000E+00
#pdf  -2  2 0.72620593E-01 0.42694574E-04 0.22890727E+02 0.13033736E+00 0.29979913E+01
#rwgt            1           4   421.53413602830000         54217137    18430189           0
</event>
<event>
      6  10013 -3.31628E+03  3.38117E+00 -1.00000E+00  2.81821E-01
      -3    -1     0     0     0   501  0.000000000E+00  0.000000000E+00  2.635746993E+02  2.635746993E+02  0.000000000E+00  0.00000E+00  9.000E+00
       3    -1     0     0   511     0  0.000000000E+00  0.000000000E+00 -8.637149402E+00  8.637149402E+00  0.000000000E+00  0.00000E+00  9.000E+00
      23     2     1     2     0     0  2.824489333E+00 -1.858642522E+00  2.461986833E+02  2.628416790E+02  9.198110804E+01  0.00000E+00  9.000E+00
      13     1     3     3     0     0 -9.348401319E+00 -2.340470350E+01  1.304587235E+01  2.837919488E+01  1.056583668E-01  0.00000E+00  9.000E+00
     -13     1     3     3     0     0  1.217289065E+01  2.154606098E+01  2.331528110E+02  2.344624841E+02  1.056583668E-01  0.00000E+00  9.000E+00
      21     1     1     2   511   501 -2.824489333E+00  1.858642522E+00  8.738866632E+00  9.370169797E+00  1.685873940E-07  0.00000E+00  9.000E+00
#pdf  -3  3 0.39130522E-01 0.12793664E-02 0.91981108E+02 0.18994544E+00 0.12763412E+01
#rwgt            1           3  -471.97615141450865         54217137    18430250           0
</event>
<event>
      6  10013  3.31628E+03  8.44822E+00 -1.00000E+00  2.04558E-01
      -2    -1     0     0     0   501  0.000000000E+00  0.000000000E+00  5.570647176E+01  5.570647176E+01  0.000000000E+00  0.00000E+00  9.000E+00
       2    -1     0     0   511     0  0.000000000E+00  0.000000000E+00 -4.985134764E+01  4.985134764E+01  0.000000000E+00  0.00000E+00  9.000E+00
      23     2     1     2     0     0  7.784724692E+00  3.281842296E+00  1.379826638E+01  9.396187458E+01  9.255846418E+01  0.00000E+00  9.000E+00
      13     1     3     3     0     0  8.117923631E+00  3.378658360E+01  4.053963029E+01  5.339388263E+01  1.056583668E-01  0.00000E+00  9.000E+00
     -13     1     3     3     0     0 -3.331989391E-01 -3.050474130E+01 -2.674136390E+01  4.056799194E+01  1.056583668E-01  0.00000E+00  9.000E+00
      21     1     1     2   511   501 -7.784724692E+00 -3.281842296E+00 -7.943142267E+00  1.159594483E+01  0.000000000E+00  0.00000E+00  9.000E+00
#pdf  -2  2 0.82549270E-02 0.61409045E-02 0.92558464E+02 0.57618251E+00 0.85701863E+00
#rwgt            1           4   338.93408925895955         54217137    18430327           0
</event>
<event>
      6  10013  3.31628E+03  2.08013E+01 -1.00000E+00  1.64933E-01
      -1    -1     0     0     0   501  0.000000000E+00  0.000000000E+00  3.365117564E+02  3.365117564E+02  0.000000000E+00  0.00000E+00  9.000E+00
       1    -1     0     0   511     0  0.000000000E+00  0.000000000E+00 -2.122242329E+01  2.122242329E+01  0.000000000E+00  0.00000E+00  9.000E+00
      23     2     1     2     0     0  2.778572312E+00 -2.061487980E+01  3.224464923E+02  3.357360284E+02  9.118249102E+01  0.00000E+00  9.000E+00
      13     1     3     3     0     0 -3.159518798E+00 -4.730044203E+01  2.874214493E+02  2.913046774E+02  1.056583668E-01  0.00000E+00  9.000E+00
     -13     1     3     3     0     0  5.938091110E+00  2.668556223E+01  3.502504298E+01  4.443135106E+01  1.056583668E-01  0.00000E+00  9.000E+00
      21     1     1     2   511   501 -2.778572312E+00  2.061487980E+01 -7.157159132E+00  2.199815129E+01  7.348554138E-07  0.00000E+00  9.000E+00
#pdf  -1  1 0.49361274E-01 0.99666645E-03 0.91182491E+02 0.21599646E+00 0.15029868E+01
#rwgt            1           5   324.64350453804644         54217137    18430474           0
</event>
<event>
      6  10013  3.31628E+03  4.62307E+00 -1.00000E+00  2.49389E-01
       1    -1     0     0   511     0  0.000000000E+00  0.000000000E+00  3.508992918E+02  3.508992918E+02  0.000000000E+00  0.00000E+00  9.000E+00
      -1    -1     0     0     0   501  0.000000000E+00  0.000000000E+00 -6.819308653E+00  6.819308653E+00  0.000000000E+00  0.00000E+00  9.000E+00
      23     2     1     2     0     0 -2.845710398E+00  3.643452437E+00  3.267131151E+02  3.397469305E+02  9.308675752E+01  0.00000E+00  9.000E+00
      13     1     3     3     0     0 -3.792655254E+01  3.075243231E+01  1.761346452E+02  1.827773506E+02  1.056583668E-01  0.00000E+00  9.000E+00
     -13     1     3     3     0     0  3.508084214E+01 -2.710897988E+01  1.505784699E+02  1.569695799E+02  1.056583668E-01  0.00000E+00  9.000E+00
      21     1     1     2   511   501  2.845710398E+00 -3.643452437E+00  1.736686802E+01  1.797166988E+01  0.000000000E+00  0.00000E+00  9.000E+00
#pdf   1 -1 0.51203049E-01 0.10013670E-02 0.93086758E+02 0.44198856E+00 0.14606431E+01
#rwgt            1           6   856.91442897999616         54217137    18430520           0
</event>
<event>
      6  10013  3.31628E+03  2.79834E+01 -1.00000E+00  1.55133E-01
      21    -1     0     0   511   501  0.000000000E+00  0.000000000E+00  5.418015987E+00  5.418015987E+00  0.000000000E+00  0.00000E+00  9.000E+00
       5    -1     0     0   501     0  0.000000000E+00  0.000000000E+00 -7.148366639E+02  7.148366639E+02  0.000000000E+00  0.00000E+00  9.000E+00
      23     2     1     2     0     0  2.791862062E+01  1.903333631E+00 -5.447297702E+02  5.532052905E+02  9.231738096E+01  0.00000E+00  9.000E+00
      13     1     3     3     0     0 -3.218942213E+01 -1.231261313E+01 -2.139724942E+02  2.167302443E+02  1.056583668E-01  0.00000E+00  9.000E+00
     -13     1     3     3     0     0  6.010804274E+01  1.421594676E+01 -3.307572759E+02  3.364750462E+02  1.056583668E-01  0.00000E+00  9.000E+00
       5     1     1     2   511     0 -2.791862062E+01 -1.903333631E+00 -1.646888778E+02  1.670493895E+02  0.000000000E+00  0.00000E+00  9.000E+00
#pdf  -5  5 0.62392872E-03 0.80824917E-01 0.92317381E+02 0.10716516E+01 0.24918623E-01
#rwgt            1           1   50.722011849675830         54217137    18430616           0
</event>
<event>
      6  10013  3.31628E+03  7.82898E+00 -1.00000E+00  2.08838E-01
      -2    -1     0     0     0   501  0.000000000E+00  0.000000000E+00  3.253252940E+01  3.253252940E+01  0.000000000E+00  0.00000E+00  9.000E+00
       2    -1     0     0   511     0  0.000000000E+00  0.000000000E+00 -1.659299320E+01  1.659299320E+01  0.000000000E+00  0.00000E+00  9.000E+00
      23     2     1     2     0     0  2.661787659E+00  7.362599527E+00  1.665263695E+01  4.126412972E+01  3.693406421E+01  0.00000E+00  9.000E+00
      13     1     3     3     0     0 -5.263249285E+00  4.774882755E+00  2.703205697E+01  2.795075252E+01  1.056583668E-01  0.00000E+00  9.000E+00
     -13     1     3     3     0     0  7.925036944E+00  2.587716772E+00 -1.037942003E+01  1.331337720E+01  1.056583668E-01  0.00000E+00  9.000E+00
      21     1     1     2   511   501 -2.661787659E+00 -7.362599527E+00 -7.131007400E-01  7.861392880E+00  2.580956828E-08  0.00000E+00  9.000E+00
#pdf  -2  2 0.43582980E-02 0.18520409E-02 0.36934064E+02 0.69726242E+00 0.10732783E+01
#rwgt            1           4   1160.2184143460395         54217137    18430746           0
</event>
<event>
      6  10013  3.31628E+03  1.48105E+01 -1.00000E+00  1.77857E-01
      21    -1     0     0   501   511  0.000000000E+00  0.000000000E+00  3.308234690E+01  3.308234690E+01  0.000000000E+00  0.00000E+00  9.000E+00
      -4    -1     0     0     0   501  0.000000000E+00  0.000000000E+00 -1.306095876E+02  1.306095876E+02  0.000000000E+00  0.00000E+00  9.000E+00
      23     2     1     2     0     0 -1.239279514E+01 -8.109862882E+00 -1.101022715E+02  1.442630218E+02  9.203237493E+01  0.00000E+00  9.000E+00
      13     1     3     3     0     0 -1.294521036E+01  1.741662254E+01  8.228800633E+00  2.320865217E+01  1.056583668E-01  0.00000E+00  9.000E+00
     -13     1     3     3     0     0  5.524152183E-01 -2.552648543E+01 -1.183310721E+02  1.210543697E+02  1.056583668E-01  0.00000E+00  9.000E+00
      -4     1     1     2     0   511  1.239279514E+01  8.109862882E+00  1.257503080E+01  1.942891265E+01  0.000000000E+00  0.00000E+00  9.000E+00
#pdf   4 -4 0.25943708E-02 0.19318015E-01 0.92032375E+02 0.75571806E+00 0.21577000E+00
#rwgt            1           9   169.95495995111651         54217137    18430924           0
</event>
<event>
      6  10013  3.31628E+03  2.24309E+00 -1.00000E+00  3.41130E-01
      21    -1     0     0   501   511  0.000000000E+00  0.000000000E+00  3.539523306E+00  3.539523306E+00  0.000000000E+00  0.00000E+00  9.000E+00
      -4    -1     0     0     0   501  0.000000000E+00  0.000000000E+00 -1.155912099E+02  1.155912099E+02  0.000000000E+00  0.00000E+00  9.000E+00
      23     2     1     2     0     0  6.591400331E-01  2.144061173E+00 -1.129560326E+02  1.167121994E+02  2.928550366E+01  0.00000E+00  9.000E+00
      13     1     3     3     0     0  5.297050113E+00  2.941991451E+00 -1.116674622E+02  1.118317814E+02  1.056583668E-01  0.00000E+00  9.000E+00
     -13     1     3     3     0     0 -4.637910080E+00 -7.979302778E-01 -1.288570422E+00  4.880418021E+00  1.056583668E-01  0.00000E+00  9.000E+00
      -4     1     1     2     0   511 -6.591400331E-01 -2.144061173E+00  9.043460317E-01  2.418533779E+00  0.000000000E+00  0.00000E+00  9.000E+00
#pdf   4 -4 0.28809208E-03 0.17615192E-01 0.29285504E+02 0.14161073E+01 0.20055630E+00
#rwgt            1           9   286.21731881511732         54217137    18431040           0
</event>
<event>
      6  10013  3.31628E+03  3.92362E+01 -1.00000E+00  1.45330E-01
       4    -1     0     0   501     0  0.000000000E+00  0.000000000E+00  3.803293258E+01  3.803293258E+01  0.000000000E+00  0.00000E+00  9.000E+00
      21    -1     0     0   511   501  0.000000000E+00  0.000000000E+00 -2.830239896E+02  2.830239896E+02  0.000000000E+00  0.00000E+00  9.000E+00
      23     2     1     2     0     0 -2.553844300E+01 -2.978699800E+01 -2.608695488E+02  2.787295809E+02  8.998766850E+01  0.00000E+00  9.000E+00
      13     1     3     3     0     0 -2.296295571E+00 -5.898974718E+01 -1.327568787E+02  1.452909606E+02  1.056583668E-01  0.00000E+00  9.000E+00
     -13     1     3     3     0     0 -2.324214743E+01  2.920274919E+01 -1.281126701E+02  1.334386203E+02  1.056583668E-01  0.00000E+00  9.000E+00
       4     1     1     2   511     0  2.553844300E+01  2.978699800E+01  1.587849173E+01  4.232734128E+01  0.000000000E+00  0.00000E+00  9.000E+00
#pdf   4 -4 0.12593462E-02 0.38048203E-01 0.89987669E+02 0.10599267E+01 0.11496278E+00
#rwgt            1           9   113.60312246017820         54217137    18431268           0
</event>
<event>
      6  10013  3.31628E+03  2.23280E+00 -1.00000E+00  3.41948E-01
      21    -1     0     0   511   501  0.000000000E+00  0.000000000E+00  5.625831418E+01  5.625831418E+01  0.000000000E+00  0.00000E+00  9.000E+00
       2    -1     0     0   501     0  0.000000000E+00  0.000000000E+00 -2.327859660E+00  2.327859660E+00  0.000000000E+00  0.00000E+00  9.000E+00
      23     2     1     2     0     0 -1.812202057E+00 -1.304352758E+00  4.541881110E+01  4.978654395E+01  2.026934002E+01  0.00000E+00  9.000E+00
      13     1     3     3     0     0 -4.881685938E+00 -7.354000225E+00  8.517352887E+00  1.226656597E+01  1.056583668E-01  0.00000E+00  9.000E+00
     -13     1     3     3     0     0  3.069483881E+00  6.049647467E+00  3.690145821E+01  3.751997798E+01  1.056583668E-01  0.00000E+00  9.000E+00
       2     1     1     2   511     0  1.812202057E+00  1.304352758E+00  8.511643425E+00  8.799629891E+00  0.000000000E+00  0.00000E+00  9.000E+00
#pdf  -2  2 0.72794558E-02 0.33395935E-03 0.20269340E+02 0.51776572E+00 0.15611489E+01
#rwgt            1           4   602.12059218803938         54217137    18431321           0
</event>
<event>
      6  10013  3.31628E+03  4.34256E+00 -1.00000E+00  2.55234E-01
       2    -1     0     0   501     0  0.000000000E+00  0.000000000E+00  1.900471232E+01  1.900471232E+01  0.000000000E+00  0.00000E+00  9.000E+00
      -2    -1     0     0     0   511  0.000000000E+00  0.000000000E+00 -1.165222320E+02  1.165222320E+02  0.000000000E+00  0.00000E+00  9.000E+00
      23     2     1     2     0     0 -4.292857891E+00  6.551534991E-01 -8.474580462E+01  1.220371496E+02  8.770608095E+01  0.00000E+00  9.000E+00
      13     1     3     3     0     0 -8.683671271E+00  6.194426597E+00 -1.024343654E+02  1.029882879E+02  1.056583668E-01  0.00000E+00  9.000E+00
     -13     1     3     3     0     0  4.390813380E+00 -5.539273098E+00  1.768856076E+01  1.904886175E+01  1.056583668E-01  0.00000E+00  9.000E+00
      21     1     1     2   501   511  4.292857891E+00 -6.551534991E-01 -1.277171507E+01  1.348979470E+01  0.000000000E+00  0.00000E+00  9.000E+00
#pdf   2 -2 0.28650553E-02 0.15886920E-01 0.87706081E+02 0.10640509E+01 0.40469226E+00
#rwgt            1           7   806.32301279913167         54217137    18431487           0
</event>
<event>
      6  10013  3.31628E+03  1.82872E+01 -1.00000E+00  1.69599E-01
       1    -1     0     0   501     0  0.000000000E+00  0.000000000E+00  1.859767906E+02  1.859767906E+02  0.000000000E+00  0.00000E+00  9.000E+00
      21    -1     0     0   511   501  0.000000000E+00  0.000000000E+00 -3.457432790E+01  3.457432790E+01  0.000000000E+00  0.00000E+00  9.000E+00
      23     2     1     2     0     0  6.677082365E+00  1.702461199E+01  1.705605705E+02  1.940661429E+02  9.075427678E+01  0.00000E+00  9.000E+00
      13     1     3     3     0     0  3.208842244E+01  4.095671719E+01  1.328714068E+02  1.426952748E+02  1.056583668E-01  0.00000E+00  9.000E+00
     -13     1     3     3     0     0 -2.541134008E+01 -2.393210520E+01  3.768916374E+01  5.137086811E+01  1.056583668E-01  0.00000E+00  9.000E+00
       1     1     1     2   511     0 -6.677082365E+00 -1.702461199E+01 -1.915810777E+01  2.648497566E+01  0.000000000E+00  0.00000E+00  9.000E+00
#pdf   1 -1 0.27495560E-01 0.17724946E-02 0.90754277E+02 0.51242922E+00 0.11583411E+01
#rwgt            1           6   824.10809778710700         54217137    18431631           0
</event>
<event>
      6  10013  3.31628E+03  1.80518E+01 -1.00000E+00  1.70084E-01
       3    -1     0     0   511     0  0.000000000E+00  0.000000000E+00  5.339009524E+00  5.339009524E+00  0.000000000E+00  0.00000E+00  9.000E+00
      -3    -1     0     0     0   501  0.000000000E+00  0.000000000E+00 -9.994262365E+02  9.994262365E+02  0.000000000E+00  0.00000E+00  9.000E+00
      23     2     1     2     0     0  9.009277790E+00 -1.564295731E+01 -9.812284335E+02  9.826018129E+02  4.869512031E+01  0.00000E+00  9.000E+00
      13     1     3     3     0     0  2.474079210E+01 -8.480351551E+00 -8.259909173E+02  8.264048824E+02  1.056583668E-01  0.00000E+00  9.000E+00
     -13     1     3     3     0     0 -1.573151431E+01 -7.162605761E+00 -1.552375163E+02  1.561969305E+02  1.056583668E-01  0.00000E+00  9.000E+00
      21     1     1     2   511   501 -9.009277790E+00  1.564295731E+01 -1.285879348E+01  2.216343316E+01  3.769728732E-07  0.00000E+00  9.000E+00
#pdf   3 -3 0.99057047E-04 0.14164420E+00 0.48695120E+02 0.28447505E+01 0.35903779E-01
#rwgt            1           8   125.23723411492108         54217137    18431713           0
</event>
<event>
      6  10013 -3.31628E+03  2.56570E+00 -1.00000E+00  3.18961E-01
       2    -1     0     0   511     0  0.000000000E+00  0.000000000E+00  1.764156415E+01  1.764156415E+01  0.000000000E+00  0.00000E+00  9.000E+00
      -2    -1     0     0     0   501  0.000000000E+00  0.000000000E+00 -7.973173704E+01  7.973173704E+01  0.000000000E+00  0.00000E+00  9.000E+00
      23     2     1     2     0     0 -2.517346103E+00 -4.957575370E-01 -6.532936404E+01  9.324109037E+01  6.647851022E+01  0.00000E+00  9.000E+00
      13     1     3     3     0     0  2.859659416E+00  2.340821619E+01 -6.455474878E+01  6.872735257E+01  1.056583668E-01  0.00000E+00  9.000E+00
     -13     1     3     3     0     0 -5.377005519E+00 -2.390397373E+01 -7.746152567E-01  2.451373780E+01  1.056583668E-01  0.00000E+00  9.000E+00
      21     1     1     2   511   501  2.517346103E+00  4.957575370E-01  3.239191152E+00  4.132210819E+00  5.960464478E-08  0.00000E+00  9.000E+00
#pdf   2 -2 0.21454586E-02 0.12188653E-01 0.66478510E+02 0.11249079E+01 0.46018179E+00
#rwgt            1           7  -1755.8170420106435         54217137    18431748           0
</event>
<event>
      6  10013  3.31628E+03  8.69344E+00 -1.00000E+00  2.02997E-01
      21    -1     0     0   511   501  0.000000000E+00  0.000000000E+00  2.025581434E+00  2.025581434E+00  0.000000000E+00  0.00000E+00  9.000E+00
       1    -1     0     0   501     0  0.000000000E+00  0.000000000E+00 -2.072181789E+02  2.072181789E+02  0.000000000E+00  0.00000E+00  9.000E+00
      23     2     1     2     0     0  7.636892919E+00 -4.153764465E+00 -1.930426870E+02  1.943040074E+02  2.032221457E+01  0.00000E+00  9.000E+00
      13     1     3     3     0     0 -3.837057465E+00  4.668123916E+00 -2.894289450E+01  2.956715571E+01  1.056583668E-01  0.00000E+00  9.000E+00
     -13     1     3     3     0     0  1.147395038E+01 -8.821888381E+00 -1.640997925E+02  1.647368517E+02  1.056583668E-01  0.00000E+00  9.000E+00
       1     1     1     2   511     0 -7.636892919E+00  4.153764465E+00 -1.214991048E+01  1.493975292E+01  0.000000000E+00  0.00000E+00  9.000E+00
#pdf  -1  1 0.89205261E-04 0.27394596E-01 0.20322215E+02 0.22986185E+01 0.48961102E+00
#rwgt            1           5   317.17311435275303         54217137    18431917           0
</event>
<event>
      6  10013  3.31628E+03  5.12317E+00 -1.00000E+00  2.36597E-01
      -2    -1     0     0     0   501  0.000000000E+00  0.000000000E+00  8.109264427E-01  8.109264427E-01  0.000000000E+00  0.00000E+00  9.000E+00
      21    -1     0     0   501   511  0.000000000E+00  0.000000000E+00 -1.000957226E+03  1.000957226E+03  0.000000000E+00  0.00000E+00  9.000E+00
      23     2     1     2     0     0 -2.774375681E+00  4.306939394E+00 -2.036206317E+02  2.052260089E+02  2.510191600E+01  0.00000E+00  9.000E+00
      13     1     3     3     0     0  6.431134184E+00  5.936567837E+00 -1.727285582E+02  1.729501902E+02  1.056583668E-01  0.00000E+00  9.000E+00
     -13     1     3     3     0     0 -9.205509866E+00 -1.629628443E+00 -3.089207347E+01  3.227581862E+01  1.056583668E-01  0.00000E+00  9.000E+00
      -2     1     1     2     0   511  2.774375681E+00 -4.306939394E+00 -7.965256683E+02  7.965421440E+02  0.000000000E+00  0.00000E+00  9.000E+00
#pdf  -2  2 0.12099623E-03 0.30814505E-01 0.25101916E+02 0.22443163E+01 0.62790205E+00
#rwgt            1           4   1163.3920417405097         54217137    18431958           0
</event>
<event>
      6  10013  3.31628E+03  6.40273E+00 -1.00000E+00  2.21102E-01
      -1    -1     0     0     0   511  0.000000000E+00  0.000000000E+00  8.120083412E+00  8.120083412E+00  0.000000000E+00  0.00000E+00  9.000E+00
       1    -1     0     0   501     0  0.000000000E+00  0.000000000E+00 -3.512466386E+02  3.512466386E+02  0.000000000E+00  0.00000E+00  9.000E+00
      23     2     1     2     0     0  5.640806679E+00  3.029237563E+00 -3.398418792E+02  3.521706067E+02  9.214465981E+01  0.00000E+00  9.000E+00
      13     1     3     3     0     0 -6.510508571E+00 -4.361610741E+01 -1.557723556E+02  1.618943776E+02  1.056583668E-01  0.00000E+00  9.000E+00
     -13     1     3     3     0     0  1.215131525E+01  4.664534498E+01 -1.840695236E+02  1.902762291E+02  1.056583668E-01  0.00000E+00  9.000E+00
      21     1     1     2   501   511 -5.640806679E+00 -3.029237563E+00 -3.284675970E+00  7.196115371E+00  2.384185791E-07  0.00000E+00  9.000E+00
#pdf  -1  1 0.94608243E-03 0.53103685E-01 0.92144660E+02 0.14910543E+01 0.43807141E+00
#rwgt            1           5   847.67995973762083         54217137    18432058           0
</event>
<event>
      6  10013  3.31628E+03  1.58750E+01 -1.00000E+00  1.75049E-01
       2    -1     0     0   511     0  0.000000000E+00  0.000000000E+00  7.599347290E-01  7.599347290E-01  0.000000000E+00  0.00000E+00  9.000E+00
      -2    -1     0     0     0   501  0.000000000E+00  0.000000000E+00 -1.328311049E+03  1.328311049E+03  0.000000000E+00  0.00000E+00  9.000E+00
      23     2     1     2     0     0 -1.031461641E+01  1.206751461E+01 -1.174914094E+03  1.175610643E+03  3.721880466E+01  0.00000E+00  9.000E+00
      13     1     3     3     0     0 -1.560065717E+01  1.305147858E+01 -3.038990372E+02  3.045789841E+02  1.056583668E-01  0.00000E+00  9.000E+00
     -13     1     3     3     0     0  5.286040752E+00 -9.839639735E-01 -8.710150569E+02  8.710316590E+02  1.056583668E-01  0.00000E+00  9.000E+00
      21     1     1     2   511   501  1.031461641E+01 -1.206751461E+01 -1.526370199E+02  1.534603404E+02  3.814697266E-06  0.00000E+00  9.000E+00
#pdf   2 -2 0.49284742E-04 0.16631279E+00 0.37218805E+02 0.33860794E+01 0.41680575E-01
#rwgt            1           7   238.13230594649485         54217137    18432185           0
</event>
<event>
      6  10013  3.31628E+03  1.06580E+01 -1.00000E+00  1.92555E-01
       1    -1     0     0   511     0  0.000000000E+00  0.000000000E+00  7.755173956E+02  7.755173956E+02  0.000000000E+00  0.00000E+00  9.000E+00
      -1    -1     0     0     0   501  0.000000000E+00  0.000000000E+00 -6.833650174E+00  6.833650174E+00  0.000000000E+00  0.00000E+00  9.000E+00
      23     2     1     2     0     0 -4.830695478E+00  9.500354680E+00  3.003050137E+02  3.138510685E+02  9.058586864E+01  0.00000E+00  9.000E+00
      13     1     3     3     0     0 -3.558270500E+01  2.692520184E+01  8.845474116E+01  9.907243707E+01  1.056583668E-01  0.00000E+00  9.000E+00
     -13     1     3     3     0     0  3.075200952E+01 -1.742484716E+01  2.118502726E+02  2.147786315E+02  1.056583668E-01  0.00000E+00  9.000E+00
      21     1     1     2   511   501  4.830695478E+00 -9.500354680E+00  4.683787317E+02  4.684999772E+02  0.000000000E+00  0.00000E+00  9.000E+00
#pdf   1 -1 0.46919142E-01 0.10348660E-02 0.90585869E+02 0.45151518E+00 0.14355727E+01
#rwgt            1           6   769.50961051605088         54217137    18432222           0
</event>
<event>
      6  10013  3.31628E+03  1.46074E+00 -1.00000E+00  4.53556E-01
      21    -1     0     0   501   511  0.000000000E+00  0.000000000E+00  7.447785238E+00  7.447785238E+00  0.000000000E+00  0.00000E+00  9.000E+00
      -1    -1     0     0     0   501  0.000000000E+00  0.000000000E+00 -3.739431088E+01  3.739431088E+01  0.000000000E+00  0.00000E+00  9.000E+00
      23     2     1     2     0     0 -3.131676026E-01 -1.426776703E+00 -3.355445500E+01  4.094967784E+01  2.342735364E+01  0.00000E+00  9.000E+00
      13     1     3     3     0     0  7.415655439E+00  8.244015816E+00 -1.621128549E+01  1.964109679E+01  1.056583668E-01  0.00000E+00  9.000E+00
     -13     1     3     3     0     0 -7.728823042E+00 -9.670792519E+00 -1.734316952E+01  2.130858104E+01  1.056583668E-01  0.00000E+00  9.000E+00
      -1     1     1     2     0   511  3.131676026E-01  1.426776703E+00  3.607929367E+00  3.892418275E+00  0.000000000E+00  0.00000E+00  9.000E+00
#pdf   1 -1 0.56776070E-03 0.57199790E-02 0.23427354E+02 0.13749754E+01 0.59775812E+00
#rwgt            1           6   181.98163344771427         54217137    18432344           0
</event>
<event>
      6  10013  3.31628E+03  1.62589E+01 -1.00000E+00  1.74103E-01
       1    -1     0     0   501     0  0.000000000E+00  0.000000000E+00  8.917644075E+02  8.917644075E+02  0.000000000E+00  0.00000E+00  9.000E+00
      21    -1     0     0   511   501  0.000000000E+00  0.000000000E+00 -3.340732979E+00  3.340732979E+00  0.000000000E+00  0.00000E+00  9.000E+00
      23     2     1     2     0     0  1.373302054E+01  8.703782793E+00  7.324202012E+02  7.382566934E+02  9.120988114E+01  0.00000E+00  9.000E+00
      13     1     3     3     0     0  3.677201462E+01  2.059830538E+01  6.598294756E+02  6.611742730E+02  1.056583668E-01  0.00000E+00  9.000E+00
     -13     1     3     3     0     0 -2.303899408E+01 -1.189452259E+01  7.259072564E+01  7.708242036E+01  1.056583668E-01  0.00000E+00  9.000E+00
       1     1     1     2   511     0 -1.373302054E+01 -8.703782793E+00  1.560034732E+02  1.568484471E+02  0.000000000E+00  0.00000E+00  9.000E+00
#pdf   1 -1 0.11137333E+00 0.44199347E-03 0.91209881E+02 0.34502963E+00 0.19911191E+01
#rwgt            1           6   1167.9774134504107         54217137    18432459           0
</event>
<event>
      6  10013  3.31628E+03  4.02542E+00 -1.00000E+00  2.62716E-01
       2    -1     0     0   501     0  0.000000000E+00  0.000000000E+00  2.475318059E+03  2.475318059E+03  0.000000000E+00  0.00000E+00  9.000E+00
      21    -1     0     0   511   501  0.000000000E+00  0.000000000E+00 -2.596986282E+00  2.596986282E+00  0.000000000E+00  0.00000E+00  9.000E+00
      23     2     1     2     0     0  2.338371436E+00 -3.276591953E+00  2.472228946E+03  2.473859651E+03  8.971847966E+01  0.00000E+00  9.000E+00
      13     1     3     3     0     0 -2.237316259E+01  2.651231018E+01  1.903086830E+03  1.903402993E+03  1.056583668E-01  0.00000E+00  9.000E+00
     -13     1     3     3     0     0  2.471153402E+01 -2.978890213E+01  5.691421164E+02  5.704566578E+02  1.056583668E-01  0.00000E+00  9.000E+00
       2     1     1     2   511     0 -2.338371436E+00  3.276591953E+00  4.921265506E-01  4.055394474E+00  0.000000000E+00  0.00000E+00  9.000E+00
#pdf   2 -2 0.38008598E+00 0.12531275E-03 0.89718480E+02 0.23310199E+00 0.31344906E+01
#rwgt            1           7   4502.3299028168476         54217137    18432530           0
</event>
<event>
      6  10013  3.31628E+03  3.11423E+01 -1.00000E+00  1.51887E-01
       1    -1     0     0   501     0  0.000000000E+00  0.000000000E+00  1.575471514E+02  1.575471514E+02  0.000000000E+00  0.00000E+00  9.000E+00
      21    -1     0     0   511   501  0.000000000E+00  0.000000000E+00 -2.659038021E+01  2.659038021E+01  0.000000000E+00  0.00000E+00  9.000E+00
      23     2     1     2     0     0  1.032145658E+01 -2.938209767E+01  1.108917918E+02  1.470910267E+02  9.148191360E+01  0.00000E+00  9.000E+00
      13     1     3     3     0     0  1.306061305E+00  8.578619511E+00  1.075849912E+02  1.079344245E+02  1.056583668E-01  0.00000E+00  9.000E+00
     -13     1     3     3     0     0  9.015395274E+00 -3.796071719E+01  3.306800662E+00  3.915660220E+01  1.056583668E-01  0.00000E+00  9.000E+00
       1     1     1     2   511     0 -1.032145658E+01  2.938209767E+01  2.006497941E+01  3.704650494E+01  0.000000000E+00  0.00000E+00  9.000E+00
#pdf   1 -1 0.18786141E-01 0.26360048E-02 0.91481914E+02 0.56441330E+00 0.98431866E+00
#rwgt            1           6   766.56289617636276         54217137    18432603           0
</event>
<event>
      6  10013  3.31628E+03  1.30089E+02 -1.00000E+00  1.18878E-01
      21    -1     0     0   511   501  0.000000000E+00  0.000000000E+00  1.753709592E+01  1.753709592E+01  0.000000000E+00  0.00000E+00  9.000E+00
       2    -1     0     0   501     0  0.000000000E+00  0.000000000E+00 -1.227563392E+03  1.227563392E+03  0.000000000E+00  0.00000E+00  9.000E+00
      23     2     1     2     0     0  1.300300043E+02 -3.914691004E+00 -7.723297137E+02  7.884809252E+02  9.102667711E+01  0.00000E+00  9.000E+00
      13     1     3     3     0     0  9.176714807E+01  1.963664833E+01 -3.079241434E+02  3.219069690E+02  1.056583668E-01  0.00000E+00  9.000E+00
     -13     1     3     3     0     0  3.826285619E+01 -2.355133933E+01 -4.644055703E+02  4.665739562E+02  1.056583668E-01  0.00000E+00  9.000E+00
       2     1     1     2   511     0 -1.300300043E+02  3.914691004E+00 -4.376965823E+02  4.566195626E+02  0.000000000E+00  0.00000E+00  9.000E+00
#pdf  -2  2 0.71228333E-03 0.68833189E-01 0.91026677E+02 0.16539923E+01 0.62254265E+00
#rwgt            1           4   953.50625403386016         54217137    18432675           0
</event>
<event>
      6  10013  3.31628E+03  7.35922E+01 -1.00000E+00  1.30104E-01
      21    -1     0     0   511   501  0.000000000E+00  0.000000000E+00  3.539400375E+01  3.539400375E+01  0.000000000E+00  0.00000E+00  9.000E+00
       5    -1     0     0   501     0  0.000000000E+00  0.000000000E+00 -2.559919577E+02  2.559919577E+02  0.000000000E+00  0.00000E+00  9.000E+00
      23     2     1     2     0     0  4.786893248E+01 -5.589613810E+01 -1.412303047E+02  1.831499384E+02  9.045489485E+01  0.00000E+00  9.000E+00
      13     1     3     3     0     0  4.987897204E+01 -4.695227212E+01 -1.533495180E+02  1.679539030E+02  1.056583668E-01  0.00000E+00  9.000E+00
     -13     1     3     3     0     0 -2.010039566E+00 -8.943865983E+00  1.211921324E+01  1.519603537E+01  1.056583668E-01  0.00000E+00  9.000E+00
       5     1     1     2   511     0 -4.786893248E+01  5.589613810E+01 -7.936764927E+01  1.082360231E+02  0.000000000E+00  0.00000E+00  9.000E+00
#pdf  -5  5 0.25013258E-02 0.19355624E-01 0.90454895E+02 0.52818751E+00 0.12976980E+00
#rwgt            1           1   108.47946216594021         54217137    18432730           0
</event>
<event>
      6  10013  3.31628E+03  8.51017E+00 -1.00000E+00  2.04157E-01
      -2    -1     0     0     0   511  0.000000000E+00  0.000000000E+00  1.349651011E+00  1.349651011E+00  0.000000000E+00  0.00000E+00  9.000E+00
       2    -1     0     0   501     0  0.000000000E+00  0.000000000E+00 -2.662969104E+02  2.662969104E+02  0.000000000E+00  0.00000E+00  9.000E+00
      23     2     1     2     0     0 -3.557518114E+00  7.730916019E+00 -2.385728650E+02  2.399331770E+02  2.405191261E+01  0.00000E+00  9.000E+00
      13     1     3     3     0     0  1.029579570E+01  2.161528253E+00 -9.054753655E+01  9.115669560E+01  1.056583668E-01  0.00000E+00  9.000E+00
     -13     1     3     3     0     0 -1.385331381E+01  5.569387766E+00 -1.480253284E+02  1.487764814E+02  1.056583668E-01  0.00000E+00  9.000E+00
      21     1     1     2   501   511  3.557518114E+00 -7.730916019E+00 -2.637439439E+01  2.771338444E+01  4.768371582E-07  0.00000E+00  9.000E+00
#pdf  -2  2 0.98646530E-04 0.34700099E-01 0.24051913E+02 0.23580113E+01 0.62598223E+00
#rwgt            1           4   1635.7412078233692         54217137    18432870           0
</event>
<event>
      6  10013  3.31628E+03  4.02105E+01 -1.00000E+00  1.44668E-01
       1    -1     0     0   501     0  0.000000000E+00  0.000000000E+00  4.618308509E+02  4.618308509E+02  0.000000000E+00  0.00000E+00  9.000E+00
      21    -1     0     0   511   501  0.000000000E+00  0.000000000E+00 -1.190558621E+01  1.190558621E+01  0.000000000E+00  0.00000E+00  9.000E+00
      23     2     1     2     0     0  3.553002900E+01  1.882829787E+01  3.660286721E+02  3.807013576E+02  9.664184991E+01  0.00000E+00  9.000E+00
      13     1     3     3     0     0  6.230783613E+01  3.684925559E+01  2.552366487E+02  2.653033963E+02  1.056583668E-01  0.00000E+00  9.000E+00
     -13     1     3     3     0     0 -2.677780713E+01 -1.802095772E+01  1.107920233E+02  1.153979613E+02  1.056583668E-01  0.00000E+00  9.000E+00
       1     1     1     2   511     0 -3.553002900E+01 -1.882829787E+01  8.389659264E+01  9.303507950E+01  0.000000000E+00  0.00000E+00  9.000E+00
#pdf   1 -1 0.53033329E-01 0.10420652E-02 0.96641850E+02 0.43803391E+00 0.14465362E+01
#rwgt            1           6   793.34626312806915         54217137    18432909           0
</event>
<event>
      5  10013  3.31628E+03  8.94427E-01 -1.00000E+00  7.48987E-01
      -1    -1     0     0     0   501  0.000000000E+00  0.000000000E+00  6.929689449E-02  6.929689449E-02  0.000000000E+00  0.00000E+00  9.000E+00
       1    -1     0     0   501     0  0.000000000E+00  0.000000000E+00 -1.545614633E+03  1.545614633E+03  0.000000000E+00  0.00000E+00  9.000E+00
      23     2     1     2     0     0  0.000000000E+00  0.000000000E+00 -1.545545336E+03  1.545683930E+03  2.069843416E+01  0.00000E+00  9.000E+00
      13     1     3     3     0     0  2.453211054E+00  8.747801884E+00 -1.142800285E+03  1.142836403E+03  1.056583668E-01  0.00000E+00  9.000E+00
     -13     1     3     3     0     0 -2.453211054E+00 -8.747801884E+00 -4.027450512E+02  4.028475267E+02  1.056583668E-01  0.00000E+00  9.000E+00
#pdf  -1  1 0.10661061E-04 0.23778687E+00 0.20698434E+02 0.43021459E+01 0.22313927E+00
#rwgt            1           5   321.55567914806198         54217137    18432955           0
</event>
<event>
      6  10013  3.31628E+03  2.69149E+01 -1.00000E+00  1.56350E-01
       2    -1     0     0   501     0  0.000000000E+00  0.000000000E+00  1.912497755E+02  1.912497755E+02  0.000000000E+00  0.00000E+00  9.000E+00
      21    -1     0     0   511   501  0.000000000E+00  0.000000000E+00 -6.110535930E+00  6.110535930E+00  0.000000000E+00  0.00000E+00  9.000E+00
      23     2     1     2     0     0 -1.791465869E+01  2.008671651E+01  5.739426513E+01  6.681074356E+01  2.109887696E+01  0.00000E+00  9.000E+00
      13     1     3     3     0     0 -2.257073774E+01  1.561454978E+01  4.269076755E+01  5.075199666E+01  1.056583668E-01  0.00000E+00  9.000E+00
     -13     1     3     3     0     0  4.656079048E+00  4.472166730E+00  1.470349758E+01  1.605874690E+01  1.056583668E-01  0.00000E+00  9.000E+00
       2     1     1     2   511     0  1.791465869E+01 -2.008671651E+01  1.277449744E+02  1.305495678E+02  0.000000000E+00  0.00000E+00  9.000E+00
#pdf   2 -2 0.58944228E-02 0.44687977E-03 0.21098877E+02 0.73627842E+00 0.14080967E+01
#rwgt            1           7   756.13588214029710         54217137    18433158           0
</event>
<event>
      6  10013  3.31628E+03  1.66645E+00 -1.00000E+00  4.04336E-01
      -2    -1     0     0     0   501  0.000000000E+00  0.000000000E+00  7.688642601E-02  7.688642601E-02  0.000000000E+00  0.00000E+00  9.000E+00
       2    -1     0     0   511     0  0.000000000E+00  0.000000000E+00 -1.606881043E+03  1.606881043E+03  0.000000000E+00  0.00000E+00  9.000E+00
      23     2     1     2     0     0 -1.580090731E+00 -5.294902978E-01 -1.429642477E+03  1.429788412E+03  2.035964639E+01  0.00000E+00  9.000E+00
      13     1     3     3     0     0 -4.305901509E-01 -9.455101101E+00 -4.238946995E+02  4.240003677E+02  1.056583668E-01  0.00000E+00  9.000E+00
     -13     1     3     3     0     0 -1.149500580E+00  8.925610803E+00 -1.005747778E+03  1.005788045E+03  1.056583668E-01  0.00000E+00  9.000E+00
      21     1     1     2   511   501  1.580090731E+00  5.294902978E-01 -1.771616799E+02  1.771695173E+02  1.907348633E-06  0.00000E+00  9.000E+00
#pdf  -2  2 0.11188386E-04 0.21922310E+00 0.20359646E+02 0.42124354E+01 0.52523617E+00
#rwgt            1           4   3871.7420080791912         54217137    18433261           0
</event>
<event>
      6  10013  3.31628E+03  1.28625E+01 -1.00000E+00  1.83862E-01
      -2    -1     0     0     0   511  0.000000000E+00  0.000000000E+00  4.197306841E+00  4.197306841E+00  0.000000000E+00  0.00000E+00  9.000E+00
       2    -1     0     0   501     0  0.000000000E+00  0.000000000E+00 -6.771696668E+02  6.771696668E+02  0.000000000E+00  0.00000E+00  9.000E+00
      23     2     1     2     0     0  8.166494721E+00 -9.937441360E+00 -6.259051891E+02  6.325739111E+02  9.070282752E+01  0.00000E+00  9.000E+00
      13     1     3     3     0     0 -3.529462501E+01 -1.168227632E+01 -1.444397243E+02  1.491476827E+02  1.056583668E-01  0.00000E+00  9.000E+00
     -13     1     3     3     0     0  4.346111973E+01  1.744834957E+00 -4.814654648E+02  4.834262284E+02  1.056583668E-01  0.00000E+00  9.000E+00
      21     1     1     2   501   511 -8.166494721E+00  9.937441360E+00 -4.706717088E+01  4.879306254E+01  9.536743164E-07  0.00000E+00  9.000E+00
#pdf  -2  2 0.50789715E-03 0.95847142E-01 0.90702828E+02 0.18815882E+01 0.60551634E+00
#rwgt            1           4   1092.8451584421996         54217137    18433451           0
</event>
<event>
      6  10013  3.31628E+03  3.39896E+00 -1.00000E+00  2.81204E-01
      -1    -1     0     0     0   511  0.000000000E+00  0.000000000E+00  9.081505110E+01  9.081505110E+01  0.000000000E+00  0.00000E+00  9.000E+00
       1    -1     0     0   501     0  0.000000000E+00  0.000000000E+00 -2.522945615E+01  2.522945615E+01  0.000000000E+00  0.00000E+00  9.000E+00
      23     2     1     2     0     0  2.960361979E+00 -1.670078116E+00  6.132768762E+01  1.105963260E+02  9.197232820E+01  0.00000E+00  9.000E+00
      13     1     3     3     0     0 -4.333065314E+01  5.317407704E+00  3.977333451E+01  5.905717254E+01  1.056583668E-01  0.00000E+00  9.000E+00
     -13     1     3     3     0     0  4.629101512E+01 -6.987485821E+00  2.155435311E+01  5.153915347E+01  1.056583668E-01  0.00000E+00  9.000E+00
      21     1     1     2   501   511 -2.960361979E+00  1.670078116E+00  4.257907336E+00  5.448181242E+00  0.000000000E+00  0.00000E+00  9.000E+00
#pdf  -1  1 0.13215902E-01 0.37873099E-02 0.91972328E+02 0.47140889E+00 0.93095085E+00
#rwgt            1           5   520.43625286671113         54217137    18433528           0
</event>
<event>
      6  10013  3.31628E+03  5.68058E+00 -1.00000E+00  2.29145E-01
       2    -1     0     0   501     0  0.000000000E+00  0.000000000E+00  4.918252915E+01  4.918252915E+01  0.000000000E+00  0.00000E+00  9.000E+00
      21    -1     0     0   511   501  0.000000000E+00  0.000000000E+00 -4.713303168E+01  4.713303168E+01  0.000000000E+00  0.00000E+00  9.000E+00
      23     2     1     2     0     0  4.038544415E+00  3.994891042E+00  4.801728074E+00  9.000336875E+01  8.969548929E+01  0.00000E+00  9.000E+00
      13     1     3     3     0     0  3.591116438E+01  2.038278189E+01  2.558272262E+01  4.857526516E+01  1.056583668E-01  0.00000E+00  9.000E+00
     -13     1     3     3     0     0 -3.187261996E+01 -1.638789085E+01 -2.078099455E+01  4.142810360E+01  1.056583668E-01  0.00000E+00  9.000E+00
       2     1     1     2   511     0 -4.038544415E+00 -3.994891042E+00 -2.752230602E+00  6.312192069E+00  0.000000000E+00  0.00000E+00  9.000E+00
#pdf   2 -2 0.72781184E-02 0.65408680E-02 0.89695489E+02 0.81891408E+00 0.64401860E+00
#rwgt            1           7   519.70815151044008         54217137    18433653           0
</event>
<event>
      6  10013  3.31628E+03  1.01573E+01 -1.00000E+00  1.94919E-01
      -4    -1     0     0     0   501  0.000000000E+00  0.000000000E+00  1.200380083E+01  1.200380083E+01  0.000000000E+00  0.00000E+00  9.000E+00
      21    -1     0     0   501   511  0.000000000E+00  0.000000000E+00 -3.876975271E+01  3.876975271E+01  0.000000000E+00  0.00000E+00  9.000E+00
      23     2     1     2     0     0  1.008449338E+01  1.214287970E+00 -8.602706780E+00  2.996310004E+01  2.684416692E+01  0.00000E+00  9.000E+00
      13     1     3     3     0     0  5.731602030E-01 -8.707176008E+00  5.464126052E+00  1.029617715E+01  1.056583668E-01  0.00000E+00  9.000E+00
     -13     1     3     3     0     0  9.511333179E+00  9.921463979E+00 -1.406683283E+01  1.966692289E+01  1.056583668E-01  0.00000E+00  9.000E+00
      -4     1     1     2     0   511 -1.008449338E+01 -1.214287970E+00 -1.816324510E+01  2.081045350E+01  0.000000000E+00  0.00000E+00  9.000E+00
#pdf  -4  4 0.15367739E-02 0.27746178E-02 0.26844167E+02 0.72776219E+00 0.56320666E+00
#rwgt            1           2   520.40536138551215         54217137    18433777           0
</event>
<event>
      6  10013  3.31628E+03  9.56214E+00 -1.00000E+00  1.97972E-01
       2    -1     0     0   501     0  0.000000000E+00  0.000000000E+00  1.451043523E+03  1.451043523E+03  0.000000000E+00  0.00000E+00  9.000E+00
      -2    -1     0     0     0   511  0.000000000E+00  0.000000000E+00 -1.673445845E+00  1.673445845E+00  0.000000000E+00  0.00000E+00  9.000E+00
      23     2     1     2     0     0  4.749192008E+00 -8.299377022E+00  1.360675194E+03  1.363508131E+03  8.732699907E+01  0.00000E+00  9.000E+00
      13     1     3     3     0     0  2.765744157E+01  3.035945523E+01  5.122115544E+02  5.138553475E+02  1.056583668E-01  0.00000E+00  9.000E+00
     -13     1     3     3     0     0 -2.290824956E+01 -3.865883226E+01  8.484636396E+02  8.496527833E+02  1.056583668E-01  0.00000E+00  9.000E+00
      21     1     1     2   501   511 -4.749192008E+00  8.299377022E+00  8.869488325E+01  8.920883812E+01  2.523185073E-06  0.00000E+00  9.000E+00
#pdf   2 -2 0.20830750E+00 0.21662345E-03 0.87326999E+02 0.48057671E+00 0.25605950E+01
#rwgt            1           7   1504.1239494141266         54217137    18433816           0
</event>
<event>
      6  10013  3.31628E+03  3.85868E+00 -1.00000E+00  2.67095E-01
       2    -1     0     0   501     0  0.000000000E+00  0.000000000E+00  1.217042795E+03  1.217042795E+03  0.000000000E+00  0.00000E+00  9.000E+00
      21    -1     0     0   511   501  0.000000000E+00  0.000000000E+00 -1.300432817E-01  1.300432817E-01  0.000000000E+00  0.00000E+00  9.000E+00
      23     2     1     2     0     0 -3.252082083E+00  2.076869977E+00  1.001934364E+03  1.002159823E+03  2.090340259E+01  0.00000E+00  9.000E+00
      13     1     3     3     0     0 -1.190097793E+01  3.431662320E+00  5.347413225E+02  5.348847565E+02  1.056583668E-01  0.00000E+00  9.000E+00
     -13     1     3     3     0     0  8.648895846E+00 -1.354792342E+00  4.671930411E+02  4.672750664E+02  1.056583668E-01  0.00000E+00  9.000E+00
       2     1     1     2   511     0  3.252082083E+00 -2.076869977E+00  2.149783877E+02  2.150130150E+02  0.000000000E+00  0.00000E+00  9.000E+00
#pdf   2 -2 0.15159980E+00 0.17054879E-04 0.20903403E+02 0.59706601E+00 0.37749864E+01
#rwgt            1           7   3092.1072849895718         54217137    18433884           0
</event>
<event>
      6  10013  3.31628E+03  1.92864E+00 -1.00000E+00  3.70373E-01
      21    -1     0     0   501   511  0.000000000E+00  0.000000000E+00  1.544687458E+02  1.544687458E+02  0.000000000E+00  0.00000E+00  9.000E+00
      -4    -1     0     0     0   501  0.000000000E+00  0.000000000E+00 -1.981458280E+00  1.981458280E+00  0.000000000E+00  0.00000E+00  9.000E+00
      23     2     1     2     0     0  1.884371671E+00 -4.108693459E-01  1.031268976E+02  1.070521498E+02  2.865808970E+01  0.00000E+00  9.000E+00
      13     1     3     3     0     0  5.549464559E+00  7.164196990E+00  9.806081867E+00  1.335262823E+01  1.056583668E-01  0.00000E+00  9.000E+00
     -13     1     3     3     0     0 -3.665092888E+00 -7.575066336E+00  9.332081574E+01  9.369952161E+01  1.056583668E-01  0.00000E+00  9.000E+00
      -4     1     1     2     0   511 -1.884371671E+00  4.108693459E-01  4.936038989E+01  4.939805422E+01  0.000000000E+00  0.00000E+00  9.000E+00
#pdf   4 -4 0.16131131E-01 0.30126103E-03 0.28658090E+02 0.21303732E+00 0.13831777E+01
#rwgt            1           9   384.65764987205648         54217137    18433919           0
</event>
<event>
      6  10013  3.31628E+03  2.11128E+00 -1.00000E+00  3.52242E-01
      -1    -1     0     0     0   501  0.000000000E+00  0.000000000E+00  2.569867984E+01  2.569867984E+01  0.000000000E+00  0.00000E+00  9.000E+00
       1    -1     0     0   511     0  0.000000000E+00  0.000000000E+00 -8.895336894E+01  8.895336894E+01  0.000000000E+00  0.00000E+00  9.000E+00
      23     2     1     2     0     0  1.597063439E+00  1.380902695E+00 -3.557657444E+01  8.689352694E+01  7.924856384E+01  0.00000E+00  9.000E+00
      13     1     3     3     0     0  2.190982760E+01 -3.192116892E+01 -9.171408158E+00  3.978853430E+01  1.056583668E-01  0.00000E+00  9.000E+00
     -13     1     3     3     0     0 -2.031276416E+01  3.330207161E+01 -2.640516628E+01  4.710499264E+01  1.056583668E-01  0.00000E+00  9.000E+00
      21     1     1     2   511   501 -1.597063439E+00 -1.380902695E+00 -2.767811466E+01  2.775852185E+01  0.000000000E+00  0.00000E+00  9.000E+00
#pdf  -1  1 0.39460578E-02 0.94174356E-02 0.79248564E+02 0.81524601E+00 0.68141616E+00
#rwgt            1           5   572.37988891362818         54217137    18434207           0
</event>
<event>
      6  10013  3.31628E+03  2.93892E+00 -1.00000E+00  2.99464E-01
       1    -1     0     0   511     0  0.000000000E+00  0.000000000E+00  6.276233047E+02  6.276233047E+02  0.000000000E+00  0.00000E+00  9.000E+00
      -1    -1     0     0     0   501  0.000000000E+00  0.000000000E+00 -3.469937020E+00  3.469937020E+00  0.000000000E+00  0.00000E+00  9.000E+00
      23     2     1     2     0     0  6.894135209E-01  2.856911601E+00  5.655734797E+02  5.724396782E+02  8.834696957E+01  0.00000E+00  9.000E+00
      13     1     3     3     0     0 -4.377679491E+00 -1.385384049E+01  5.460612457E+02  5.462545087E+02  1.056583668E-01  0.00000E+00  9.000E+00
     -13     1     3     3     0     0  5.067093012E+00  1.671075209E+01  1.951223395E+01  2.618516955E+01  1.056583668E-01  0.00000E+00  9.000E+00
      21     1     1     2   511   501 -6.894135209E-01 -2.856911601E+00  5.857988796E+01  5.865356348E+01  9.536743164E-07  0.00000E+00  9.000E+00
#pdf   1 -1 0.87491078E-01 0.52787712E-03 0.88346970E+02 0.38002874E+00 0.18514136E+01
#rwgt            1           6   1253.4718509407785         54217137    18434350           0
</event>
<event>
      6  10013  3.31628E+03  1.61842E+01 -1.00000E+00  1.74284E-01
       2    -1     0     0   501     0  0.000000000E+00  0.000000000E+00  4.076595218E+01  4.076595218E+01  0.000000000E+00  0.00000E+00  9.000E+00
      21    -1     0     0   511   501  0.000000000E+00  0.000000000E+00 -1.172999623E+01  1.172999623E+01  0.000000000E+00  0.00000E+00  9.000E+00
      23     2     1     2     0     0 -1.573850410E+01 -3.771961639E+00  1.162266740E+01  2.872304736E+01  2.068813299E+01  0.00000E+00  9.000E+00
      13     1     3     3     0     0 -2.792054043E-01 -1.859354416E+00  1.295267277E+01  1.308885213E+01  1.056583668E-01  0.00000E+00  9.000E+00
     -13     1     3     3     0     0 -1.545929870E+01 -1.912607223E+00 -1.330005374E+00  1.563419523E+01  1.056583668E-01  0.00000E+00  9.000E+00
       2     1     1     2   511     0  1.573850410E+01  3.771961639E+00  1.741328855E+01  2.377290105E+01  0.000000000E+00  0.00000E+00  9.000E+00
#pdf   2 -2 0.24444084E-02 0.10360534E-02 0.20688133E+02 0.89445899E+00 0.10626845E+01
#rwgt            1           7   717.08206477895044         54217137    18434504           0
</event>
<event>
      6  10013  3.31628E+03  2.59844E+01 -1.00000E+00  1.57468E-01
       1    -1     0     0   511     0  0.000000000E+00  0.000000000E+00  1.912691548E+03  1.912691548E+03  0.000000000E+00  0.00000E+00  9.000E+00
      -1    -1     0     0     0   501  0.000000000E+00  0.000000000E+00 -2.956225266E+00  2.956225266E+00  0.000000000E+00  0.00000E+00  9.000E+00
      23     2     1     2     0     0  2.577219424E+00  2.585628956E+01  9.321760326E+02  9.377431994E+02  9.866591399E+01  0.00000E+00  9.000E+00
      13     1     3     3     0     0  4.280888974E+01 -1.260462815E+01  3.306954867E+02  3.336929633E+02  1.056583668E-01  0.00000E+00  9.000E+00
     -13     1     3     3     0     0 -4.023167031E+01  3.846091771E+01  6.014805459E+02  6.040502361E+02  1.056583668E-01  0.00000E+00  9.000E+00
      21     1     1     2   511   501 -2.577219424E+00 -2.585628956E+01  9.775592899E+02  9.779045736E+02  1.525878906E-05  0.00000E+00  9.000E+00
#pdf   1 -1 0.13909711E+00 0.41412313E-03 0.98665914E+02 0.30574611E+00 0.20709858E+01
#rwgt            1           6   822.66932863552904         54217137    18434559           0
</event>
<event>
      6  10013  3.31628E+03  2.72960E+00 -1.00000E+00  3.09745E-01
      -1    -1     0     0     0   501  0.000000000E+00  0.000000000E+00  3.007439067E+00  3.007439067E+00  0.000000000E+00  0.00000E+00  9.000E+00
       1    -1     0     0   511     0  0.000000000E+00  0.000000000E+00 -8.427991730E+02  8.427991730E+02  0.000000000E+00  0.00000E+00  9.000E+00
      23     2     1     2     0     0 -1.715834893E+00  2.122876422E+00 -6.863027826E+02  6.922933915E+02  9.083600541E+01  0.00000E+00  9.000E+00
      13     1     3     3     0     0  4.047239043E+01 -2.091463561E+00 -1.951279698E+02  1.992920580E+02  1.056583668E-01  0.00000E+00  9.000E+00
     -13     1     3     3     0     0 -4.218822532E+01  4.214339983E+00 -4.911748127E+02  4.930013335E+02  1.056583668E-01  0.00000E+00  9.000E+00
      21     1     1     2   511   501  1.715834893E+00 -2.122876422E+00 -1.534889513E+02  1.535132205E+02  0.000000000E+00  0.00000E+00  9.000E+00
#pdf  -1  1 0.46060816E-03 0.10599801E+00 0.90836005E+02 0.19590049E+01 0.35268428E+00
#rwgt            1           5   857.89696471383411         54217137    18434606           0
</event>
<event>
      6  10013  3.31628E+03  1.51415E+01 -1.00000E+00  1.76953E-01
       4    -1     0     0   501     0  0.000000000E+00  0.000000000E+00  4.477917099E+02  4.477917099E+02  0.000000000E+00  0.00000E+00  9.000E+00
      -4    -1     0     0     0   511  0.000000000E+00  0.000000000E+00 -7.912882638E+00  7.912882638E+00  0.000000000E+00  0.00000E+00  9.000E+00
      23     2     1     2     0     0 -2.915402412E+00 -1.485819609E+01  3.888669100E+02  4.024929278E+02  1.027317754E+02  0.00000E+00  9.000E+00
      13     1     3     3     0     0 -3.976815010E+01  1.074636542E+01  7.620201267E+01  8.662417694E+01  1.056583668E-01  0.00000E+00  9.000E+00
     -13     1     3     3     0     0  3.685274769E+01 -2.560456150E+01  3.126648973E+02  3.158687508E+02  1.056583668E-01  0.00000E+00  9.000E+00
      21     1     1     2   501   511  2.915402412E+00  1.485819609E+01  5.101191732E+01  5.321166480E+01  6.743495762E-07  0.00000E+00  9.000E+00
#pdf   4 -4 0.60223219E-01 0.10369526E-02 0.10273178E+03 0.67787289E-01 0.11870889E+01
#rwgt            1           9   60.885429749142773         54217137    18434741           0
</event>
<event>
      6  10013  3.31628E+03  1.06133E+02 -1.00000E+00  1.22654E-01
      21    -1     0     0   501   511  0.000000000E+00  0.000000000E+00  7.233060986E+01  7.233060986E+01  0.000000000E+00  0.00000E+00  9.000E+00
      -2    -1     0     0     0   501  0.000000000E+00  0.000000000E+00 -2.321450593E+02  2.321450593E+02  0.000000000E+00  0.00000E+00  9.000E+00
      23     2     1     2     0     0 -3.664928794E+01  9.960418203E+01 -1.361305750E+02  1.957324427E+02  9.227942519E+01  0.00000E+00  9.000E+00
      13     1     3     3     0     0  2.179745439E+01  6.819506058E+00 -2.663676070E+00  2.299436920E+01  1.056583668E-01  0.00000E+00  9.000E+00
     -13     1     3     3     0     0 -5.844674233E+01  9.278467597E+01 -1.334668989E+02  1.727380735E+02  1.056583668E-01  0.00000E+00  9.000E+00
      -2     1     1     2     0   511  3.664928794E+01 -9.960418203E+01 -2.368387447E+01  1.087432264E+02  0.000000000E+00  0.00000E+00  9.000E+00
#pdf   2 -2 0.30082369E-02 0.16749854E-01 0.92279425E+02 0.10541195E+01 0.39347669E+00
#rwgt            1           7   402.00375718574469         54217137    18434888           0
</event>
<event>
      6  10013  3.31628E+03  2.65030E+00 -1.00000E+00  3.14061E-01
       1    -1     0     0   511     0  0.000000000E+00  0.000000000E+00  3.523697455E+00  3.523697455E+00  0.000000000E+00  0.00000E+00  9.000E+00
      -1    -1     0     0     0   501  0.000000000E+00  0.000000000E+00 -6.964079090E+02  6.964079090E+02  0.000000000E+00  0.00000E+00  9.000E+00
      23     2     1     2     0     0  1.145872746E+00  2.389786190E+00 -6.891593817E+02  6.953601231E+02  9.261761901E+01  0.00000E+00  9.000E+00
      13     1     3     3     0     0  3.312405628E+01  2.548186275E+01 -1.850730806E+02  1.897329301E+02  1.056583668E-01  0.00000E+00  9.000E+00
     -13     1     3     3     0     0 -3.197818354E+01 -2.309207656E+01 -5.040863011E+02  5.056271930E+02  1.056583668E-01  0.00000E+00  9.000E+00
      21     1     1     2   511   501 -1.145872746E+00 -2.389786190E+00 -3.724829823E+00  4.571483304E+00  1.685873940E-07  0.00000E+00  9.000E+00
#pdf   1 -1 0.47678494E-03 0.10645792E+00 0.92617619E+02 0.19708750E+01 0.10638826E+00
#rwgt            1           6   412.25389956052868         54217137    18434938           0
</event>
<event>
      6  10013  3.31628E+03  4.01986E+00 -1.00000E+00  2.62857E-01
      -1    -1     0     0     0   501  0.000000000E+00  0.000000000E+00  3.620958531E+02  3.620958531E+02  0.000000000E+00  0.00000E+00  9.000E+00
      21    -1     0     0   501   511  0.000000000E+00  0.000000000E+00 -1.399998712E+01  1.399998712E+01  0.000000000E+00  0.00000E+00  9.000E+00
      23     2     1     2     0     0  3.499693504E+00  1.977723626E+00  3.553487982E+02  3.678034177E+02  9.481785957E+01  0.00000E+00  9.000E+00
      13     1     3     3     0     0  4.430620095E+01 -4.540161753E+00  2.614110187E+02  2.651780239E+02  1.056583668E-01  0.00000E+00  9.000E+00
     -13     1     3     3     0     0 -4.080650745E+01  6.517885379E+00  9.393777947E+01  1.026253938E+02  1.056583668E-01  0.00000E+00  9.000E+00
      -1     1     1     2     0   511 -3.499693504E+00 -1.977723626E+00 -7.252932189E+00  8.292422487E+00  0.000000000E+00  0.00000E+00  9.000E+00
#pdf  -1  1 0.55577169E-01 0.95718783E-03 0.94817860E+02 0.19758749E+00 0.15349116E+01
#rwgt            1           5   286.74734045449162         54217137    18435061           0
</event>
<event>
      6  10013  3.31628E+03  1.25618E+01 -1.00000E+00  1.84911E-01
      -2    -1     0     0     0   511  0.000000000E+00  0.000000000E+00  1.270440623E+01  1.270440623E+01  0.000000000E+00  0.00000E+00  9.000E+00
       2    -1     0     0   501     0  0.000000000E+00  0.000000000E+00 -4.270252699E+02  4.270252699E+02  0.000000000E+00  0.00000E+00  9.000E+00
      23     2     1     2     0     0  1.185059041E+01 -4.166791922E+00 -4.171444209E+02  4.268544626E+02  8.965191389E+01  0.00000E+00  9.000E+00
      13     1     3     3     0     0  1.167517344E+00 -4.261347315E+01 -1.266447639E+02  1.336270129E+02  1.056583668E-01  0.00000E+00  9.000E+00
     -13     1     3     3     0     0  1.068307307E+01  3.844668123E+01 -2.904996570E+02  2.932274496E+02  1.056583668E-01  0.00000E+00  9.000E+00
      21     1     1     2   501   511 -1.185059041E+01  4.166791922E+00  2.823557265E+00  1.287521354E+01  7.456538679E-07  0.00000E+00  9.000E+00
#pdf  -2  2 0.73970035E-03 0.64294911E-01 0.89651914E+02 0.16256401E+01 0.62507658E+00
#rwgt            1           4   1051.7757514523223         54217137    18435198           0
</event>
<event>
      6  10013  3.31628E+03  5.94860E+00 -1.00000E+00  2.25975E-01
       2    -1     0     0   501     0  0.000000000E+00  0.000000000E+00  1.117816117E+03  1.117816117E+03  0.000000000E+00  0.00000E+00  9.000E+00
      21    -1     0     0   511   501  0.000000000E+00  0.000000000E+00 -1.675425314E-01  1.675425314E-01  0.000000000E+00  0.00000E+00  9.000E+00
      23     2     1     2     0     0  1.220086407E+00  5.822134627E+00  9.162647212E+02  9.165119686E+02  2.043926447E+01  0.00000E+00  9.000E+00
      13     1     3     3     0     0 -6.580357663E-01  1.144621193E+01  3.004480614E+02  3.006667550E+02  1.056583668E-01  0.00000E+00  9.000E+00
     -13     1     3     3     0     0  1.878122174E+00 -5.624077307E+00  6.158166597E+02  6.158452136E+02  1.056583668E-01  0.00000E+00  9.000E+00
       2     1     1     2   511     0 -1.220086407E+00 -5.822134627E+00  2.013838535E+02  2.014716911E+02  0.000000000E+00  0.00000E+00  9.000E+00
#pdf   2 -2 0.13536636E+00 0.18261358E-04 0.20439264E+02 0.60980549E+00 0.36680199E+01
#rwgt            1           7   3143.1076863044232         54217137    18435309           0
</event>
<event>
      6  10013  3.31628E+03  4.74076E+00 -1.00000E+00  2.47120E-01
       4    -1     0     0   501     0  0.000000000E+00  0.000000000E+00  1.312871576E+02  1.312871576E+02  0.000000000E+00  0.00000E+00  9.000E+00
      21    -1     0     0   511   501  0.000000000E+00  0.000000000E+00 -1.599534606E+00  1.599534606E+00  0.000000000E+00  0.00000E+00  9.000E+00
      23     2     1     2     0     0  3.156073445E+00 -3.537513331E+00  1.092829042E+02  1.119384859E+02  2.376965850E+01  0.00000E+00  9.000E+00
      13     1     3     3     0     0  1.604510948E+00 -2.289340678E+00  1.651308880E-01  2.802493179E+00  1.056583668E-01  0.00000E+00  9.000E+00
     -13     1     3     3     0     0  1.551562497E+00 -1.248172653E+00  1.091177733E+02  1.091359927E+02  1.056583668E-01  0.00000E+00  9.000E+00
       4     1     1     2   511     0 -3.156073445E+00  3.537513331E+00  2.040471876E+01  2.094820632E+01  0.000000000E+00  0.00000E+00  9.000E+00
#pdf   4 -4 0.16688347E-01 0.20032994E-03 0.23769658E+02 0.20108549E+00 0.14855288E+01
#rwgt            1           9   131.13684070604799         54217137    18435366           0
</event>
<event>
      6  10013  3.31628E+03  1.02742E+01 -1.00000E+00  1.94351E-01
      21    -1     0     0   501   511  0.000000000E+00  0.000000000E+00  1.730321568E+02  1.730321568E+02  0.000000000E+00  0.00000E+00  9.000E+00
      -1    -1     0     0     0   501  0.000000000E+00  0.000000000E+00 -1.687155642E+01  1.687155642E+01  0.000000000E+00  0.00000E+00  9.000E+00
      23     2     1     2     0     0 -5.446057512E+00 -8.712073436E+00  1.537013412E+02  1.793392576E+02  9.183086230E+01  0.00000E+00  9.000E+00
      13     1     3     3     0     0 -3.312776201E+00  2.578984298E+01  1.396079458E+02  1.420087328E+02  1.056583668E-01  0.00000E+00  9.000E+00
     -13     1     3     3     0     0 -2.133281311E+00 -3.450191642E+01  1.409339534E+01  3.733052480E+01  1.056583668E-01  0.00000E+00  9.000E+00
      -1     1     1     2     0   511  5.446057512E+00  8.712073436E+00  2.459259167E+00  1.056445558E+01  0.000000000E+00  0.00000E+00  9.000E+00
#pdf   1 -1 0.25459656E-01 0.19599188E-02 0.91830862E+02 0.52232038E+00 0.11136181E+01
#rwgt            1           6   923.72152512127741         54217137    18435473           0
</event>
<event>
      6  10013  3.31628E+03  8.48759E+00 -1.00000E+00  2.04303E-01
      -2    -1     0     0     0   511  0.000000000E+00  0.000000000E+00  1.938216460E+01  1.938216460E+01  0.000000000E+00  0.00000E+00  9.000E+00
       2    -1     0     0   501     0  0.000000000E+00  0.000000000E+00 -1.106602258E+03  1.106602258E+03  0.000000000E+00  0.00000E+00  9.000E+00
      23     2     1     2     0     0  7.735203747E+00 -3.493690301E+00 -1.103889278E+03  1.107278783E+03  8.615524439E+01  0.00000E+00  9.000E+00
      13     1     3     3     0     0  1.486641258E+01  2.566396883E+01 -1.492878135E+02  1.522054924E+02  1.056583668E-01  0.00000E+00  9.000E+00
     -13     1     3     3     0     0 -7.131208834E+00 -2.915765913E+01 -9.546014645E+02  9.550732906E+02  1.056583668E-01  0.00000E+00  9.000E+00
      21     1     1     2   501   511 -7.735203747E+00  3.493690301E+00  1.666918439E+01  1.870563972E+01  1.784161275E-06  0.00000E+00  9.000E+00
#pdf  -2  2 0.25947507E-03 0.16927043E+00 0.86155244E+02 0.23912276E+01 0.53301227E+00
#rwgt            1           4   1741.6954050221339         54217137    18435608           0
</event>
<event>
      6  10013  3.31628E+03  3.73657E+01 -1.00000E+00  1.46667E-01
      -2    -1     0     0     0   511  0.000000000E+00  0.000000000E+00  4.331190590E+01  4.331190590E+01  0.000000000E+00  0.00000E+00  9.000E+00
       2    -1     0     0   501     0  0.000000000E+00  0.000000000E+00 -2.902590437E+02  2.902590437E+02  0.000000000E+00  0.00000E+00  9.000E+00
      23     2     1     2     0     0  3.640654826E+01 -8.412003887E+00 -2.713893488E+02  2.889209749E+02  9.179843435E+01  0.00000E+00  9.000E+00
      13     1     3     3     0     0  7.374609475E+00  3.538150553E+01 -1.792118539E+02  1.828199539E+02  1.056583668E-01  0.00000E+00  9.000E+00
     -13     1     3     3     0     0  2.903193879E+01 -4.379350942E+01 -9.217749493E+01  1.061010211E+02  1.056583668E-01  0.00000E+00  9.000E+00
      21     1     1     2   501   511 -3.640654826E+01  8.412003887E+00  2.444221095E+01  4.464997472E+01  1.261592536E-06  0.00000E+00  9.000E+00
#pdf  -2  2 0.12490756E-02 0.39920423E-01 0.91798434E+02 0.13271666E+01 0.64058954E+00
#rwgt            1           4   981.55088943368105         54217137    18435746           0
</event>
<event>
      6  10013  3.31628E+03  9.39931E+00 -1.00000E+00  1.98859E-01
      -4    -1     0     0     0   501  0.000000000E+00  0.000000000E+00  3.262922814E+01  3.262922814E+01  0.000000000E+00  0.00000E+00  9.000E+00
      21    -1     0     0   501   511  0.000000000E+00  0.000000000E+00 -8.565307761E+02  8.565307761E+02  0.000000000E+00  0.00000E+00  9.000E+00
      23     2     1     2     0     0  9.392622330E+00  3.545330487E-01 -3.137372399E+01  9.657644472E+01  9.085346482E+01  0.00000E+00  9.000E+00
      13     1     3     3     0     0  5.042464400E+00  3.655564304E+01 -4.451254693E+01  5.781971535E+01  1.056583668E-01  0.00000E+00  9.000E+00
     -13     1     3     3     0     0  4.350157930E+00 -3.620110999E+01  1.313882294E+01  3.875672936E+01  1.056583668E-01  0.00000E+00  9.000E+00
      -4     1     1     2     0   511 -9.392622330E+00 -3.545330487E-01 -7.925278240E+02  7.925835595E+02  0.000000000E+00  0.00000E+00  9.000E+00
#pdf  -4  4 0.49889663E-02 0.97900681E-02 0.90853465E+02 0.53381338E+00 0.35437646E+00
#rwgt            1           2   170.71954089449781         54217137    18435775           0
</event>
<event>
      6  10013  3.31628E+03  2.46129E+00 -1.00000E+00  3.25480E-01
      -2    -1     0     0     0   501  0.000000000E+00  0.000000000E+00  4.114597303E+00  4.114597303E+00  0.000000000E+00  0.00000E+00  9.000E+00
       2    -1     0     0   511     0  0.000000000E+00  0.000000000E+00 -1.380515398E+02  1.380515398E+02  0.000000000E+00  0.00000E+00  9.000E+00
      23     2     1     2     0     0 -2.063023222E+00  1.342335895E+00 -1.020656722E+02  1.101999706E+02  4.147980410E+01  0.00000E+00  9.000E+00
      13     1     3     3     0     0 -3.044526995E+00  6.894058018E-01  3.463683391E+00  4.663978056E+00  1.056583668E-01  0.00000E+00  9.000E+00
     -13     1     3     3     0     0  9.815037726E-01  6.529300935E-01 -1.055293556E+02  1.055359926E+02  1.056583668E-01  0.00000E+00  9.000E+00
      21     1     1     2   511   501  2.063023222E+00 -1.342335895E+00 -3.187127033E+01  3.196616654E+01  3.371747881E-07  0.00000E+00  9.000E+00
#pdf  -2  2 0.62461663E-03 0.16299457E-01 0.41479804E+02 0.14887429E+01 0.67078363E+00
#rwgt            1           4   1588.2352054067192         54217137    18435820           0
</event>
<event>
      6  10013  3.31628E+03  6.04420E+00 -1.00000E+00  2.24900E-01
       2    -1     0     0   501     0  0.000000000E+00  0.000000000E+00  4.820239820E+01  4.820239820E+01  0.000000000E+00  0.00000E+00  9.000E+00
      -2    -1     0     0     0   511  0.000000000E+00  0.000000000E+00 -1.002131723E+01  1.002131723E+01  0.000000000E+00  0.00000E+00  9.000E+00
      23     2     1     2     0     0  3.445109174E+00  4.966248538E+00  3.715437994E+01  5.209293108E+01  3.600962534E+01  0.00000E+00  9.000E+00
      13     1     3     3     0     0  1.797151043E+01  1.059788293E+01  1.967348847E+01  2.867660409E+01  1.056583668E-01  0.00000E+00  9.000E+00
     -13     1     3     3     0     0 -1.452640125E+01 -5.631634392E+00  1.748089148E+01  2.341632699E+01  1.056583668E-01  0.00000E+00  9.000E+00
      21     1     1     2   501   511 -3.445109174E+00 -4.966248538E+00  1.026701032E+00  6.130784352E+00  9.541398641E-08  0.00000E+00  9.000E+00
#pdf   2 -2 0.67704663E-02 0.11332662E-02 0.36009625E+02 0.76491651E+00 0.11664051E+01
#rwgt            1           7   892.96156309776597         54217137    18436009           0
</event>
<event>
      6  10013  3.31628E+03  6.49827E+01 -1.00000E+00  1.32851E-01
       1    -1     0     0   501     0  0.000000000E+00  0.000000000E+00  2.458445921E+03  2.458445921E+03  0.000000000E+00  0.00000E+00  9.000E+00
      21    -1     0     0   511   501  0.000000000E+00  0.000000000E+00 -4.049645171E+00  4.049645171E+00  0.000000000E+00  0.00000E+00  9.000E+00
      23     2     1     2     0     0 -6.496907757E+01  1.328718664E+00  2.063448419E+03  2.066183854E+03  8.410465914E+01  0.00000E+00  9.000E+00
      13     1     3     3     0     0 -6.283099032E+01  3.013823621E+01  1.755722857E+03  1.757105236E+03  1.056583668E-01  0.00000E+00  9.000E+00
     -13     1     3     3     0     0 -2.138087252E+00 -2.880951755E+01  3.077255616E+02  3.090786181E+02  1.056583668E-01  0.00000E+00  9.000E+00
       1     1     1     2   511     0  6.496907757E+01 -1.328718664E+00  3.909478574E+02  3.963117128E+02  0.000000000E+00  0.00000E+00  9.000E+00
#pdf   1 -1 0.25137333E+00 0.16650765E-03 0.84104659E+02 0.17704373E+00 0.27960086E+01
#rwgt            1           6   932.67259535181677         54217137    18436084           0
</event>
<event>
      6  10013  3.31628E+03  5.82235E+00 -1.00000E+00  2.27438E-01
      -1    -1     0     0     0   501  0.000000000E+00  0.000000000E+00  5.474912533E+00  5.474912533E+00  0.000000000E+00  0.00000E+00  9.000E+00
       1    -1     0     0   511     0  0.000000000E+00  0.000000000E+00 -6.847464638E+02  6.847464638E+02  0.000000000E+00  0.00000E+00  9.000E+00
      23     2     1     2     0     0 -4.747584850E+00 -3.370491107E+00 -3.788427411E+02  3.897361525E+02  9.131564104E+01  0.00000E+00  9.000E+00
      13     1     3     3     0     0  3.177520746E+01 -2.539607341E+01 -1.052148275E+02  1.128042351E+02  1.056583668E-01  0.00000E+00  9.000E+00
     -13     1     3     3     0     0 -3.652279231E+01  2.202558231E+01 -2.736279136E+02  2.769319174E+02  1.056583668E-01  0.00000E+00  9.000E+00
      21     1     1     2   511   501  4.747584850E+00  3.370491107E+00 -3.004288101E+02  3.004852238E+02  3.814697266E-06  0.00000E+00  9.000E+00
#pdf  -1  1 0.83625658E-03 0.59001641E-01 0.91315641E+02 0.15620100E+01 0.42657371E+00
#rwgt            1           5   766.68210052279039         54217137    18436150           0
</event>
<event>
      6  10013  3.31628E+03  1.04956E+01 -1.00000E+00  1.93303E-01
      -2    -1     0     0     0   501  0.000000000E+00  0.000000000E+00  3.645529614E+00  3.645529614E+00  0.000000000E+00  0.00000E+00  9.000E+00
      21    -1     0     0   501   511  0.000000000E+00  0.000000000E+00 -2.809171525E+02  2.809171525E+02  0.000000000E+00  0.00000E+00  9.000E+00
      23     2     1     2     0     0  9.731021045E-01 -1.045044107E+01 -2.611306368E+02  2.653093687E+02  4.571315993E+01  0.00000E+00  9.000E+00
      13     1     3     3     0     0  5.987946572E+00  7.492844892E+00 -1.146025602E+01  1.494479376E+01  1.056583668E-01  0.00000E+00  9.000E+00
     -13     1     3     3     0     0 -5.014844467E+00 -1.794328596E+01 -2.496703808E+02  2.503645749E+02  1.056583668E-01  0.00000E+00  9.000E+00
      -2     1     1     2     0   511 -9.731021045E-01  1.045044107E+01 -1.614098609E+01  1.925331344E+01  0.000000000E+00  0.00000E+00  9.000E+00
#pdf  -2  2 0.31328940E-03 0.39468451E-01 0.45713160E+02 0.19394630E+01 0.63454067E+00
#rwgt            1           4   1740.0891664355504         54217137    18436248           0
</event>
<event>
      6  10013  3.31628E+03  2.28455E+01 -1.00000E+00  1.61700E-01
      -2    -1     0     0     0   511  0.000000000E+00  0.000000000E+00  1.469492626E+01  1.469492626E+01  0.000000000E+00  0.00000E+00  9.000E+00
       2    -1     0     0   501     0  0.000000000E+00  0.000000000E+00 -4.445913485E+02  4.445913485E+02  0.000000000E+00  0.00000E+00  9.000E+00
      23     2     1     2     0     0 -2.242588565E+01  4.358450636E+00 -4.257805114E+02  4.360729777E+02  9.137111982E+01  0.00000E+00  9.000E+00
      13     1     3     3     0     0 -2.507140768E+01 -1.588009034E+01 -4.077799786E+02  4.088585023E+02  1.056583668E-01  0.00000E+00  9.000E+00
     -13     1     3     3     0     0  2.645522034E+00  2.023854097E+01 -1.800053276E+01  2.721447539E+01  1.056583668E-01  0.00000E+00  9.000E+00
      21     1     1     2   501   511  2.242588565E+01 -4.358450636E+00 -4.115910837E+00  2.321329707E+01  9.019819469E-07  0.00000E+00  9.000E+00
#pdf  -2  2 0.76808379E-03 0.64316528E-01 0.91371120E+02 0.16072977E+01 0.62498179E+00
#rwgt            1           4   1409.9592358873424         54217137    18436358           0
</event>
<event>
      6  10013  3.31628E+03  2.83868E+00 -1.00000E+00  3.04200E-01
      -3    -1     0     0     0   501  0.000000000E+00  0.000000000E+00  2.380199788E+01  2.380199788E+01  0.000000000E+00  0.00000E+00  9.000E+00
       3    -1     0     0   511     0  0.000000000E+00  0.000000000E+00 -1.125098055E+02  1.125098055E+02  0.000000000E+00  0.00000E+00  9.000E+00
      23     2     1     2     0     0  2.542836514E-01 -2.827272920E+00 -8.275508096E+01  1.297168745E+02  9.984991722E+01  0.00000E+00  9.000E+00
      13     1     3     3     0     0 -7.341793740E+00  2.066154438E+01 -9.818565885E+01  1.006043544E+02  1.056583668E-01  0.00000E+00  9.000E+00
     -13     1     3     3     0     0  7.596077392E+00 -2.348881730E+01  1.543057789E+01  2.911252011E+01  1.056583668E-01  0.00000E+00  9.000E+00
      21     1     1     2   511   501 -2.542836514E-01  2.827272920E+00 -5.952726677E+00  6.594928903E+00  1.192092896E-07  0.00000E+00  9.000E+00
#pdf  -3  3 0.36109867E-02 0.16337396E-01 0.99849917E+02 0.82307637E+00 0.36752163E+00
#rwgt            1           3   478.84756893485365         54217137    18436432           0
</event>
<event>
      6  10013  3.31628E+03  1.46272E+00 -1.00000E+00  4.53077E-01
       3    -1     0     0   501     0  0.000000000E+00  0.000000000E+00  8.477105452E-01  8.477105452E-01  0.000000000E+00  0.00000E+00  9.000E+00
      -3    -1     0     0     0   511  0.000000000E+00  0.000000000E+00 -1.425362530E+02  1.425362530E+02  0.000000000E+00  0.00000E+00  9.000E+00
      23     2     1     2     0     0 -1.276229948E+00  7.146872433E-01 -1.309396919E+02  1.325360453E+02  2.045631599E+01  0.00000E+00  9.000E+00
      13     1     3     3     0     0 -7.826289537E+00 -2.680162591E-01 -2.126166405E+01  2.265815885E+01  1.056583668E-01  0.00000E+00  9.000E+00
     -13     1     3     3     0     0  6.550059589E+00  9.827035024E-01 -1.096780278E+02  1.098778865E+02  1.056583668E-01  0.00000E+00  9.000E+00
      21     1     1     2   501   511  1.276229948E+00 -7.146872433E-01 -1.074885061E+01  1.084791825E+01  2.064765462E-07  0.00000E+00  9.000E+00
#pdf   3 -3 0.12248370E-03 0.20215750E-01 0.20456316E+02 0.20230178E+01 0.28872938E+00
#rwgt            1           8   128.12818081585567         54217137    18436633           0
</event>
<event>
      6  10013  3.31628E+03  5.82314E+00 -1.00000E+00  2.27429E-01
       1    -1     0     0   511     0  0.000000000E+00  0.000000000E+00  4.202102940E+00  4.202102940E+00  0.000000000E+00  0.00000E+00  9.000E+00
      -1    -1     0     0     0   501  0.000000000E+00  0.000000000E+00 -6.197228400E+01  6.197228400E+01  0.000000000E+00  0.00000E+00  9.000E+00
      23     2     1     2     0     0  5.756998870E+00 -8.751378239E-01 -5.315605731E+01  5.874478129E+01  2.432023844E+01  0.00000E+00  9.000E+00
      13     1     3     3     0     0 -2.626954952E-01  1.109630380E+01 -3.004608598E+01  3.203085096E+01  1.056583668E-01  0.00000E+00  9.000E+00
     -13     1     3     3     0     0  6.019694365E+00 -1.197144163E+01 -2.310997133E+01  2.671393033E+01  1.056583668E-01  0.00000E+00  9.000E+00
      21     1     1     2   511   501 -5.756998870E+00  8.751378239E-01 -4.614123751E+00  7.429605655E+00  1.332800375E-07  0.00000E+00  9.000E+00
#pdf   1 -1 0.41808457E-03 0.83711441E-02 0.24320238E+02 0.15267378E+01 0.51673295E+00
#rwgt            1           6   166.78217599507050         54217137    18436724           0
</event>
<event>
      6  10013  3.31628E+03  9.94514E+00 -1.00000E+00  1.95975E-01
       1    -1     0     0   511     0  0.000000000E+00  0.000000000E+00  6.912575502E+02  6.912575502E+02  0.000000000E+00  0.00000E+00  9.000E+00
      -1    -1     0     0     0   501  0.000000000E+00  0.000000000E+00 -4.144969615E+00  4.144969615E+00  0.000000000E+00  0.00000E+00  9.000E+00
      23     2     1     2     0     0 -6.722854156E+00 -7.328649761E+00  5.856481675E+02  5.934518798E+02  9.540676955E+01  0.00000E+00  9.000E+00
      13     1     3     3     0     0 -2.838532355E+01 -3.745465061E+01  4.612396719E+02  4.636276777E+02  1.056583668E-01  0.00000E+00  9.000E+00
     -13     1     3     3     0     0  2.166246940E+01  3.012600085E+01  1.244084956E+02  1.298242021E+02  1.056583668E-01  0.00000E+00  9.000E+00
      21     1     1     2   511   501  6.722854156E+00  7.328649761E+00  1.014644131E+02  1.019506400E+02  1.348699152E-06  0.00000E+00  9.000E+00
#pdf   1 -1 0.90211217E-01 0.59705059E-03 0.95406770E+02 0.37496459E+00 0.17918526E+01
#rwgt            1           6   1248.0238979028436         54217137    18436780           0
</event>
<event>
      6  10013  3.31628E+03  2.18336E+00 -1.00000E+00  3.45988E-01
       1    -1     0     0   501     0  0.000000000E+00  0.000000000E+00  1.226502963E+03  1.226502963E+03  0.000000000E+00  0.00000E+00  9.000E+00
      -1    -1     0     0     0   511  0.000000000E+00  0.000000000E+00 -1.592988392E-01  1.592988392E-01  0.000000000E+00  0.00000E+00  9.000E+00
      23     2     1     2     0     0 -1.566104258E+00  1.521310946E+00  1.179690424E+03  1.179957959E+03  2.503041914E+01  0.00000E+00  9.000E+00
      13     1     3     3     0     0  8.935958071E+00 -3.838427181E-02  9.287640876E+02  9.288070814E+02  1.056583668E-01  0.00000E+00  9.000E+00
     -13     1     3     3     0     0 -1.050206233E+01  1.559695218E+00  2.509263365E+02  2.511508779E+02  1.056583668E-01  0.00000E+00  9.000E+00
      21     1     1     2   501   511  1.566104258E+00 -1.521310946E+00  4.665324050E+01  4.670430300E+01  1.168007728E-06  0.00000E+00  9.000E+00
#pdf   1 -1 0.18082479E+00 0.20501780E-04 0.25030419E+02 0.28322963E+00 0.38426638E+01
#rwgt            1           6   317.12705976479918         54217137    18436868           0
</event>
<event>
      6  10013  3.31628E+03  9.21972E-01 -1.00000E+00  7.21332E-01
      -1    -1     0     0     0   511  0.000000000E+00  0.000000000E+00  2.359673251E+00  2.359673251E+00  0.000000000E+00  0.00000E+00  9.000E+00
       1    -1     0     0   501     0  0.000000000E+00  0.000000000E+00 -1.241123775E+03  1.241123775E+03  0.000000000E+00  0.00000E+00  9.000E+00
      23     2     1     2     0     0  3.477530719E-01 -8.538733966E-01 -1.238953456E+03  1.242542232E+03  9.436461672E+01  0.00000E+00  9.000E+00
      13     1     3     3     0     0  2.193043772E+01 -3.976095775E+01 -8.141062514E+02  8.153716193E+02  1.056583668E-01  0.00000E+00  9.000E+00
     -13     1     3     3     0     0 -2.158268465E+01  3.890708435E+01 -4.248472051E+02  4.271706127E+02  1.056583668E-01  0.00000E+00  9.000E+00
      21     1     1     2   501   511 -3.477530719E-01  8.538733966E-01  1.893551226E-01  9.412158832E-01  7.347420947E-08  0.00000E+00  9.000E+00
#pdf  -1  1 0.27604648E-03 0.19087517E+00 0.94364617E+02 0.23869652E+01 0.24111174E+00
#rwgt            1           5   1252.0243618576217         54217137    18436954           0
</event>
<event>
      6  10013  3.31628E+03  4.04139E+01 -1.00000E+00  1.44532E-01
      21    -1     0     0   511   501  0.000000000E+00  0.000000000E+00  9.598502347E+01  9.598502347E+01  0.000000000E+00  0.00000E+00  9.000E+00
       1    -1     0     0   501     0  0.000000000E+00  0.000000000E+00 -5.786955238E+01  5.786955238E+01  0.000000000E+00  0.00000E+00  9.000E+00
      23     2     1     2     0     0  3.582031328E+01  1.871340986E+01  4.704465393E+01  1.124659680E+02  9.381954993E+01  0.00000E+00  9.000E+00
      13     1     3     3     0     0 -7.992658946E+00 -3.189861765E+01  2.711127205E+01  4.261967434E+01  1.056583668E-01  0.00000E+00  9.000E+00
     -13     1     3     3     0     0  4.381297222E+01  5.061202752E+01  1.993338188E+01  6.984629368E+01  1.056583668E-01  0.00000E+00  9.000E+00
       1     1     1     2   511     0 -3.582031328E+01 -1.871340986E+01 -8.929182836E+00  4.138860783E+01  0.000000000E+00  0.00000E+00  9.000E+00
#pdf  -1  1 0.11268994E-01 0.46218391E-02 0.93819550E+02 0.51127166E+00 0.87075645E+00
#rwgt            1           5   511.00426160620128         54217137    18437299           0
</event>
<event>
      6  10013  3.31628E+03  5.97080E+00 -1.00000E+00  2.25723E-01
       2    -1     0     0   511     0  0.000000000E+00  0.000000000E+00  7.928424641E+02  7.928424641E+02  0.000000000E+00  0.00000E+00  9.000E+00
      -2    -1     0     0     0   501  0.000000000E+00  0.000000000E+00 -4.260373659E-01  4.260373659E-01  0.000000000E+00  0.00000E+00  9.000E+00
      23     2     1     2     0     0 -3.713523427E-02 -5.970683626E+00  5.593687492E+02  5.601443490E+02  2.885556677E+01  0.00000E+00  9.000E+00
      13     1     3     3     0     0 -9.139774866E-02 -1.706284731E+00  1.550406501E+00  2.309693733E+00  1.056583668E-01  0.00000E+00  9.000E+00
     -13     1     3     3     0     0  5.426251439E-02 -4.264398895E+00  5.578183427E+02  5.578346553E+02  1.056583668E-01  0.00000E+00  9.000E+00
      21     1     1     2   511   501  3.713523427E-02  5.970683626E+00  2.330476776E+02  2.331241525E+02  0.000000000E+00  0.00000E+00  9.000E+00
#pdf   2 -2 0.84329979E-01 0.58423897E-04 0.28855567E+02 0.62576572E+00 0.29449819E+01
#rwgt            1           7   1773.3578596221489         54217137    18437345           0
</event>
<event>
      6  10013  3.31628E+03  2.95960E+00 -1.00000E+00  2.98525E-01
      21    -1     0     0   501   511  0.000000000E+00  0.000000000E+00  1.890524384E+02  1.890524384E+02  0.000000000E+00  0.00000E+00  9.000E+00
      -2    -1     0     0     0   501  0.000000000E+00  0.000000000E+00 -3.766525657E+00  3.766525657E+00  0.000000000E+00  0.00000E+00  9.000E+00
      23     2     1     2     0     0  6.794947950E-01 -2.880544464E+00  2.633005714E+01  3.383555838E+01  2.104314265E+01  0.00000E+00  9.000E+00
      13     1     3     3     0     0 -8.882315323E+00  1.909329933E+00  6.073022972E+00  1.092857896E+01  1.056583668E-01  0.00000E+00  9.000E+00
     -13     1     3     3     0     0  9.561810118E+00 -4.789874397E+00  2.025703417E+01  2.290697943E+01  1.056583668E-01  0.00000E+00  9.000E+00
      -2     1     1     2     0   511 -6.794947950E-01  2.880544464E+00  1.589558556E+02  1.589834057E+02  0.000000000E+00  0.00000E+00  9.000E+00
#pdf   2 -2 0.45830182E-02 0.57171938E-03 0.21043143E+02 0.77435990E+00 0.12992502E+01
#rwgt            1           7   665.73436394830003         54217137    18437487           0
</event>
<event>
      6  10013  3.31628E+03  6.59648E+00 -1.00000E+00  2.19190E-01
      -2    -1     0     0     0   501  0.000000000E+00  0.000000000E+00  1.464280689E+00  1.464280689E+00  0.000000000E+00  0.00000E+00  9.000E+00
       2    -1     0     0   511     0  0.000000000E+00  0.000000000E+00 -1.599931855E+03  1.599931855E+03  0.000000000E+00  0.00000E+00  9.000E+00
      23     2     1     2     0     0 -1.499260725E-02 -6.596460435E+00 -1.467072220E+03  1.469835303E+03  8.984100551E+01  0.00000E+00  9.000E+00
      13     1     3     3     0     0  1.155219778E+00  1.526788831E+01 -4.388282813E+01  4.647748611E+01  1.056583668E-01  0.00000E+00  9.000E+00
     -13     1     3     3     0     0 -1.170212385E+00 -2.186434875E+01 -1.423189392E+03  1.423357817E+03  1.056583668E-01  0.00000E+00  9.000E+00
      21     1     1     2   511   501  1.499260725E-02  6.596460435E+00 -1.313953539E+02  1.315608321E+02  0.000000000E+00  0.00000E+00  9.000E+00
#pdf  -2  2 0.21197424E-03 0.22530945E+00 0.89841006E+02 0.25965927E+01 0.45525511E+00
#rwgt            1           4   1652.9939716581875         54217137    18437593           0
</event>
<event>
      5  10013  3.31628E+03  8.94427E-01 -1.00000E+00  7.38439E-01
      -2    -1     0     0     0   501  0.000000000E+00  0.000000000E+00  2.487726697E-01  2.487726697E-01  0.000000000E+00  0.00000E+00  9.000E+00
       2    -1     0     0   501     0  0.000000000E+00  0.000000000E+00 -4.858701073E+02  4.858701073E+02  0.000000000E+00  0.00000E+00  9.000E+00
      23     2     1     2     0     0  0.000000000E+00  0.000000000E+00 -4.856213346E+02  4.861188799E+02  2.198828813E+01  0.00000E+00  9.000E+00
      13     1     3     3     0     0  7.356743730E+00 -8.416378640E-01 -6.316293378E+01  6.359557689E+01  1.056583668E-01  0.00000E+00  9.000E+00
     -13     1     3     3     0     0 -7.356743730E+00  8.416378640E-01 -4.224584008E+02  4.225233031E+02  1.056583668E-01  0.00000E+00  9.000E+00
#pdf  -2  2 0.38272718E-04 0.74749247E-01 0.21988288E+02 0.30407563E+01 0.62887568E+00
#rwgt            1           4   2135.0427972434632         54217137    18437771           0
</event>
<event>
      6  10013  3.31628E+03  1.15935E+01 -1.00000E+00  1.88561E-01
      -2    -1     0     0     0   511  0.000000000E+00  0.000000000E+00  7.846229834E+00  7.846229834E+00  0.000000000E+00  0.00000E+00  9.000E+00
       2    -1     0     0   501     0  0.000000000E+00  0.000000000E+00 -3.615219506E+02  3.615219506E+02  0.000000000E+00  0.00000E+00  9.000E+00
      23     2     1     2     0     0  6.233438863E+00  9.775205027E+00 -3.408289658E+02  3.520635710E+02  8.746407100E+01  0.00000E+00  9.000E+00
      13     1     3     3     0     0  1.520959931E+01 -3.587796209E+00 -5.832192825E+00  1.668022271E+01  1.056583668E-01  0.00000E+00  9.000E+00
     -13     1     3     3     0     0 -8.976160442E+00  1.336300124E+01 -3.349967730E+02  3.353833483E+02  1.056583668E-01  0.00000E+00  9.000E+00
      21     1     1     2   501   511 -6.233438863E+00 -9.775205027E+00 -1.284675491E+01  1.730460936E+01  5.331201500E-07  0.00000E+00  9.000E+00
#pdf  -2  2 0.85670697E-03 0.52837270E-01 0.87464071E+02 0.15289551E+01 0.63136146E+00
#rwgt            1           4   1077.3858968240679         54217137    18438099           0
</event>
<event>
      6  10013  3.31628E+03  2.71402E+01 -1.00000E+00  1.56088E-01
      21    -1     0     0   501   511  0.000000000E+00  0.000000000E+00  1.383038856E+02  1.383038856E+02  0.000000000E+00  0.00000E+00  9.000E+00
      -4    -1     0     0     0   501  0.000000000E+00  0.000000000E+00 -5.637193537E+01  5.637193537E+01  0.000000000E+00  0.00000E+00  9.000E+00
      23     2     1     2     0     0 -1.629443586E+01  2.170444408E+01 -1.693308146E+01  9.215320872E+01  8.642275798E+01  0.00000E+00  9.000E+00
      13     1     3     3     0     0  1.785051199E+01  2.744875902E+01 -3.913175263E+01  5.102333170E+01  1.056583668E-01  0.00000E+00  9.000E+00
     -13     1     3     3     0     0 -3.414494785E+01 -5.744314942E+00  2.219867117E+01  4.112987702E+01  1.056583668E-01  0.00000E+00  9.000E+00
      -4     1     1     2     0   511  1.629443586E+01 -2.170444408E+01  9.886503167E+01  1.025226122E+02  0.000000000E+00  0.00000E+00  9.000E+00
#pdf   4 -4 0.55203513E-02 0.80057647E-02 0.86422758E+02 0.50029725E+00 0.40068500E+00
#rwgt            1           9   220.82151432654075         54217137    18438233           0
</event>
<event>
      6  10013  3.31628E+03  6.34996E+00 -1.00000E+00  2.21639E-01
      -1    -1     0     0     0   511  0.000000000E+00  0.000000000E+00  1.023064609E+01  1.023064609E+01  0.000000000E+00  0.00000E+00  9.000E+00
       1    -1     0     0   501     0  0.000000000E+00  0.000000000E+00 -2.963909174E+02  2.963909174E+02  0.000000000E+00  0.00000E+00  9.000E+00
      23     2     1     2     0     0 -4.635387789E+00  4.339950515E+00 -2.899504080E+02  2.992264889E+02  7.365412804E+01  0.00000E+00  9.000E+00
      13     1     3     3     0     0  6.768392622E+00 -1.213197222E+01 -2.719156993E+02  2.722703704E+02  1.056583668E-01  0.00000E+00  9.000E+00
     -13     1     3     3     0     0 -1.140378041E+01  1.647192273E+01 -1.803470873E+01  2.695611858E+01  1.056583668E-01  0.00000E+00  9.000E+00
      21     1     1     2   501   511  4.635387789E+00 -4.339950515E+00  3.790136752E+00  7.395074512E+00  8.429369702E-08  0.00000E+00  9.000E+00
#pdf  -1  1 0.71090759E-03 0.45153803E-01 0.73654128E+02 0.16003146E+01 0.45572651E+00
#rwgt            1           5   266.85290593053077         54217137    18438302           0
</event>
<event>
      6  10013  3.31628E+03  4.28896E+00 -1.00000E+00  2.56429E-01
      21    -1     0     0   511   501  0.000000000E+00  0.000000000E+00  4.310789298E+00  4.310789298E+00  0.000000000E+00  0.00000E+00  9.000E+00
       1    -1     0     0   501     0  0.000000000E+00  0.000000000E+00 -1.598995299E+03  1.598995299E+03  0.000000000E+00  0.00000E+00  9.000E+00
      23     2     1     2     0     0 -8.853090419E-01 -4.196599185E+00 -1.596108580E+03  1.598786886E+03  9.240407008E+01  0.00000E+00  9.000E+00
      13     1     3     3     0     0 -1.154544396E+01  5.689091530E+00 -3.042317091E+01  3.303397540E+01  1.056583668E-01  0.00000E+00  9.000E+00
     -13     1     3     3     0     0  1.066013492E+01 -9.885690715E+00 -1.565685409E+03  1.565752910E+03  1.056583668E-01  0.00000E+00  9.000E+00
       1     1     1     2   511     0  8.853090419E-01  4.196599185E+00  1.424070066E+00  4.519202626E+00  0.000000000E+00  0.00000E+00  9.000E+00
#pdf  -1  1 0.20580196E-03 0.24549688E+00 0.92404070E+02 0.26450586E+01 0.18119655E+00
#rwgt            1           5   645.12761140437794         54217137    18438357           0
</event>
<event>
      5  10013  3.31628E+03  8.94427E-01 -1.00000E+00  7.17186E-01
       2    -1     0     0   501     0  0.000000000E+00  0.000000000E+00  4.529078079E+02  4.529078079E+02  0.000000000E+00  0.00000E+00  9.000E+00
      -2    -1     0     0     0   501  0.000000000E+00  0.000000000E+00 -1.010030657E+00  1.010030657E+00  0.000000000E+00  0.00000E+00  9.000E+00
      23     2     1     2     0     0  0.000000000E+00  0.000000000E+00  4.518977772E+02  4.539178385E+02  4.277619762E+01  0.00000E+00  9.000E+00
      13     1     3     3     0     0  8.896666390E+00 -7.353481977E+00  3.487920538E+01  3.673954955E+01  1.056583668E-01  0.00000E+00  9.000E+00
     -13     1     3     3     0     0 -8.896666390E+00  7.353481977E+00  4.170185718E+02  4.171782890E+02  1.056583668E-01  0.00000E+00  9.000E+00
#pdf   2 -2 0.69678124E-01 0.15538933E-03 0.42776198E+02 0.62635106E+00 0.24208453E+01
#rwgt            1           7   3035.2172417819688         54217137    18438440           0
</event>
<event>
      6  10013  3.31628E+03  5.45546E+00 -1.00000E+00  2.32003E-01
       1    -1     0     0   501     0  0.000000000E+00  0.000000000E+00  4.728990177E+00  4.728990177E+00  0.000000000E+00  0.00000E+00  9.000E+00
      21    -1     0     0   511   501  0.000000000E+00  0.000000000E+00 -1.622710250E+02  1.622710250E+02  0.000000000E+00  0.00000E+00  9.000E+00
      23     2     1     2     0     0  5.149916935E+00 -1.800105448E+00 -6.877738936E+01  7.806788201E+01  3.653084849E+01  0.00000E+00  9.000E+00
      13     1     3     3     0     0  2.024322300E+00 -1.341624853E+01 -7.266666400E+00  1.539185530E+01  1.056583668E-01  0.00000E+00  9.000E+00
     -13     1     3     3     0     0  3.125594635E+00  1.161614308E+01 -6.151072296E+01  6.267602671E+01  1.056583668E-01  0.00000E+00  9.000E+00
       1     1     1     2   511     0 -5.149916935E+00  1.800105448E+00 -8.876464551E+01  8.893213320E+01  0.000000000E+00  0.00000E+00  9.000E+00
#pdf   1 -1 0.70681506E-03 0.11171899E-01 0.36530848E+02 0.14260086E+01 0.47722018E+00
#rwgt            1           6   88.495722538973240         54217137    18438605           0
</event>
<event>
      6  10013  3.31628E+03  3.97331E+00 -1.00000E+00  2.64048E-01
      -2    -1     0     0     0   511  0.000000000E+00  0.000000000E+00  7.063944204E+00  7.063944204E+00  0.000000000E+00  0.00000E+00  9.000E+00
       2    -1     0     0   501     0  0.000000000E+00  0.000000000E+00 -9.380240701E+02  9.380240701E+02  0.000000000E+00  0.00000E+00  9.000E+00
      23     2     1     2     0     0  9.739229236E-01  3.852099049E+00 -9.350074041E+02  9.394163607E+02  9.082106577E+01  0.00000E+00  9.000E+00
      13     1     3     3     0     0  2.853448550E+00 -3.098231367E+01 -1.306829129E+02  1.343357019E+02  1.056583668E-01  0.00000E+00  9.000E+00
     -13     1     3     3     0     0 -1.879525626E+00  3.483441272E+01 -8.043244912E+02  8.050806588E+02  1.056583668E-01  0.00000E+00  9.000E+00
      21     1     1     2   501   511 -9.739229236E-01 -3.852099049E+00  4.047278198E+00  5.671653530E+00  5.900558792E-07  0.00000E+00  9.000E+00
#pdf  -2  2 0.33882642E-03 0.14404866E+00 0.90821066E+02 0.21909024E+01 0.56112486E+00
#rwgt            1           4   1188.6229135209055         54217137    18438652           0
</event>
<event>
      6  10013  3.31628E+03  2.18014E+00 -1.00000E+00  3.46259E-01
      21    -1     0     0   511   501  0.000000000E+00  0.000000000E+00  1.778654129E+02  1.778654129E+02  0.000000000E+00  0.00000E+00  9.000E+00
       3    -1     0     0   501     0  0.000000000E+00  0.000000000E+00 -1.256901304E+01  1.256901304E+01  0.000000000E+00  0.00000E+00  9.000E+00
      23     2     1     2     0     0  1.482165522E-01  2.175091138E+00  1.591000360E+02  1.838657187E+02  9.213592172E+01  0.00000E+00  9.000E+00
      13     1     3     3     0     0 -3.309571835E+01 -2.037010827E+01  3.129293975E+01  4.989516135E+01  1.056583668E-01  0.00000E+00  9.000E+00
     -13     1     3     3     0     0  3.324393491E+01  2.254519941E+01  1.278070962E+02  1.339705573E+02  1.056583668E-01  0.00000E+00  9.000E+00
       3     1     1     2   511     0 -1.482165522E-01 -2.175091138E+00  6.196363918E+00  6.568707286E+00  0.000000000E+00  0.00000E+00  9.000E+00
#pdf  -3  3 0.26374599E-01 0.19045194E-02 0.92135922E+02 0.26275577E+00 0.10811987E+01
#rwgt            1           3   403.29323481824332         54217137    18438853           0
</event>
<event>
      6  10013  3.31628E+03  8.90327E+00 -1.00000E+00  2.01714E-01
       1    -1     0     0   501     0  0.000000000E+00  0.000000000E+00  6.390360915E+02  6.390360915E+02  0.000000000E+00  0.00000E+00  9.000E+00
      21    -1     0     0   511   501  0.000000000E+00  0.000000000E+00 -9.811581787E-01  9.811581787E-01  0.000000000E+00  0.00000E+00  9.000E+00
      23     2     1     2     0     0 -3.712345962E+00  8.092390725E+00  6.135938772E+02  6.139862765E+02  2.006073881E+01  0.00000E+00  9.000E+00
      13     1     3     3     0     0  5.542832729E-01  7.515384386E+00  5.868065806E+02  5.868549757E+02  1.056583668E-01  0.00000E+00  9.000E+00
     -13     1     3     3     0     0 -4.266629234E+00  5.770063383E-01  2.678729659E+01  2.713130081E+01  1.056583668E-01  0.00000E+00  9.000E+00
       1     1     1     2   511     0  3.712345962E+00 -8.092390725E+00  2.446105610E+01  2.603097320E+01  0.000000000E+00  0.00000E+00  9.000E+00
#pdf   1 -1 0.86310655E-01 0.27589430E-04 0.20060739E+02 0.40083049E+00 0.32337116E+01
#rwgt            1           6   309.32408397052734         54217137    18438963           0
</event>
<event>
      6  10013  3.31628E+03  2.56639E+01 -1.00000E+00  1.57866E-01
      -2    -1     0     0     0   501  0.000000000E+00  0.000000000E+00  5.657725361E+02  5.657725361E+02  0.000000000E+00  0.00000E+00  9.000E+00
      21    -1     0     0   501   511  0.000000000E+00  0.000000000E+00 -3.356231121E+00  3.356231121E+00  0.000000000E+00  0.00000E+00  9.000E+00
      23     2     1     2     0     0 -2.482319107E+01 -6.515173053E+00  3.962296143E+02  4.009721306E+02  5.587579030E+01  0.00000E+00  9.000E+00
      13     1     3     3     0     0 -2.014977339E+01  1.930776988E+01  1.078935092E+02  1.114442634E+02  1.056583668E-01  0.00000E+00  9.000E+00
     -13     1     3     3     0     0 -4.673417674E+00 -2.582294294E+01  2.883361051E+02  2.895278672E+02  1.056583668E-01  0.00000E+00  9.000E+00
      -2     1     1     2     0   511  2.482319107E+01  6.515173053E+00  1.661866906E+02  1.681566366E+02  0.000000000E+00  0.00000E+00  9.000E+00
#pdf  -2  2 0.55726277E-01 0.33151304E-03 0.55875790E+02 0.16527040E+00 0.20306843E+01
#rwgt            1           4   216.74624039625866         54217137    18439031           0
</event>
<event>
      6  10013  3.31628E+03  4.45788E+01 -1.00000E+00  1.41950E-01
      21    -1     0     0   501   511  0.000000000E+00  0.000000000E+00  4.051800412E+01  4.051800412E+01  0.000000000E+00  0.00000E+00  9.000E+00
      -4    -1     0     0     0   501  0.000000000E+00  0.000000000E+00 -1.041238948E+02  1.041238948E+02  0.000000000E+00  0.00000E+00  9.000E+00
      23     2     1     2     0     0 -4.125950138E+01  1.687960891E+01 -6.628972159E+01  9.998240278E+01  6.012392225E+01  0.00000E+00  9.000E+00
      13     1     3     3     0     0 -2.111833103E+01  2.516340031E+01 -2.926752041E+00  3.298117132E+01  1.056583668E-01  0.00000E+00  9.000E+00
     -13     1     3     3     0     0 -2.014117036E+01 -8.283791400E+00 -6.336296955E+01  6.700123146E+01  1.056583668E-01  0.00000E+00  9.000E+00
      -4     1     1     2     0   511  4.125950138E+01 -1.687960891E+01  2.683830871E+00  4.465949619E+01  0.000000000E+00  0.00000E+00  9.000E+00
#pdf   4 -4 0.20819103E-02 0.10274150E-01 0.60123922E+02 0.77582441E+00 0.32509659E+00
#rwgt            1           9   287.16484093626588         54217137    18439104           0
</event>
<event>
      6  10013  3.31628E+03  9.49375E-01 -1.00000E+00  6.94390E-01
       2    -1     0     0   511     0  0.000000000E+00  0.000000000E+00  5.246778950E+00  5.246778950E+00  0.000000000E+00  0.00000E+00  9.000E+00
      -2    -1     0     0     0   501  0.000000000E+00  0.000000000E+00 -2.626113644E+01  2.626113644E+01  0.000000000E+00  0.00000E+00  9.000E+00
      23     2     1     2     0     0  5.720698208E-01 -7.576599822E-01 -2.155545129E+01  3.041516884E+01  2.143697046E+01  0.00000E+00  9.000E+00
      13     1     3     3     0     0  2.936325776E+00 -1.142696041E-01  3.876331290E+00  4.865405900E+00  1.056583668E-01  0.00000E+00  9.000E+00
     -13     1     3     3     0     0 -2.364255956E+00 -6.433903780E-01 -2.543178258E+01  2.554976294E+01  1.056583668E-01  0.00000E+00  9.000E+00
      21     1     1     2   511   501 -5.720698208E-01  7.576599822E-01  5.410937983E-01  1.092746552E+00  0.000000000E+00  0.00000E+00  9.000E+00
#pdf   2 -2 0.68084938E-03 0.39938253E-02 0.21436970E+02 0.12848647E+01 0.66254146E+00
#rwgt            1           7   551.91550956558331         54217137    18439154           0
</event>
<event>
      6  10013  3.31628E+03  1.18541E+01 -1.00000E+00  1.87535E-01
      -1    -1     0     0     0   501  0.000000000E+00  0.000000000E+00  3.756887098E+01  3.756887098E+01  0.000000000E+00  0.00000E+00  9.000E+00
       1    -1     0     0   511     0  0.000000000E+00  0.000000000E+00 -9.730408292E+01  9.730408292E+01  0.000000000E+00  0.00000E+00  9.000E+00
      23     2     1     2     0     0  4.171266141E+00 -1.109593037E+01 -2.123815421E+01  9.459215717E+01  9.141169440E+01  0.00000E+00  9.000E+00
      13     1     3     3     0     0  4.575979921E+00  3.629195317E+01  9.890675283E+00  3.789303470E+01  1.056583668E-01  0.00000E+00  9.000E+00
     -13     1     3     3     0     0 -4.047137795E-01 -4.738788354E+01 -3.112882950E+01  5.669912247E+01  1.056583668E-01  0.00000E+00  9.000E+00
      21     1     1     2   511   501 -4.171266141E+00  1.109593037E+01 -3.849705772E+01  4.028079673E+01  6.743495762E-07  0.00000E+00  9.000E+00
#pdf  -1  1 0.55957616E-02 0.88360387E-02 0.91411694E+02 0.70980223E+00 0.70197984E+00
#rwgt            1           5   510.87663563253608         54217137    18439332           0
</event>
<event>
      6  10013  3.31628E+03  2.28584E+00 -1.00000E+00  3.37818E-01
      21    -1     0     0   501   511  0.000000000E+00  0.000000000E+00  8.884910940E+01  8.884910940E+01  0.000000000E+00  0.00000E+00  9.000E+00
      -1    -1     0     0     0   501  0.000000000E+00  0.000000000E+00 -9.436556820E+01  9.436556820E+01  0.000000000E+00  0.00000E+00  9.000E+00
      23     2     1     2     0     0  4.643930924E-01  2.238173113E+00 -7.362844678E+01  1.150643439E+02  8.839360823E+01  0.00000E+00  9.000E+00
      13     1     3     3     0     0 -2.330890311E+01  2.293957941E+01  2.367814989E+00  3.278943396E+01  1.056583668E-01  0.00000E+00  9.000E+00
     -13     1     3     3     0     0  2.377329620E+01 -2.070140630E+01 -7.599626177E+01  8.227490991E+01  1.056583668E-01  0.00000E+00  9.000E+00
      -1     1     1     2     0   511 -4.643930924E-01 -2.238173113E+00  6.811198798E+01  6.815033372E+01  0.000000000E+00  0.00000E+00  9.000E+00
#pdf   1 -1 0.31863115E-02 0.14509979E-01 0.88393608E+02 0.98468054E+00 0.44844755E+00
#rwgt            1           6   649.72695964797470         54217137    18439443           0
</event>
<event>
      6  10013  3.31628E+03  1.02787E+01 -1.00000E+00  1.94330E-01
      21    -1     0     0   511   501  0.000000000E+00  0.000000000E+00  5.046314805E+00  5.046314805E+00  0.000000000E+00  0.00000E+00  9.000E+00
       2    -1     0     0   501     0  0.000000000E+00  0.000000000E+00 -4.104180996E+02  4.104180996E+02  0.000000000E+00  0.00000E+00  9.000E+00
      23     2     1     2     0     0 -7.144335276E+00  7.389871418E+00 -4.028375194E+02  4.048779029E+02  3.927336828E+01  0.00000E+00  9.000E+00
      13     1     3     3     0     0 -3.476142247E+00 -4.848374445E+00 -8.793004675E+00  1.062630672E+01  1.056583668E-01  0.00000E+00  9.000E+00
     -13     1     3     3     0     0 -3.668193029E+00  1.223824586E+01 -3.940445147E+02  3.942515961E+02  1.056583668E-01  0.00000E+00  9.000E+00
       2     1     1     2   511     0  7.144335276E+00 -7.389871418E+00 -2.534265419E+00  1.058651158E+01  0.000000000E+00  0.00000E+00  9.000E+00
#pdf  -2  2 0.15183836E-03 0.60107420E-01 0.39273368E+02 0.23833756E+01 0.62854610E+00
#rwgt            1           4   2016.1498216834220         54217137    18439566           0
</event>
<event>
      6  10013  3.31628E+03  1.20617E+01 -1.00000E+00  1.86741E-01
       1    -1     0     0   501     0  0.000000000E+00  0.000000000E+00  1.778315453E+02  1.778315453E+02  0.000000000E+00  0.00000E+00  9.000E+00
      21    -1     0     0   511   501  0.000000000E+00  0.000000000E+00 -2.331583231E+01  2.331583231E+01  0.000000000E+00  0.00000E+00  9.000E+00
      23     2     1     2     0     0 -5.511282695E+00 -1.072898210E+01  6.424989939E+01  1.100792581E+02  8.856584098E+01  0.00000E+00  9.000E+00
      13     1     3     3     0     0  4.539363558E+00  2.054482407E+01  7.309246942E+01  7.606060654E+01  1.056583668E-01  0.00000E+00  9.000E+00
     -13     1     3     3     0     0 -1.005064625E+01 -3.127380617E+01 -8.842570028E+00  3.401865152E+01  1.056583668E-01  0.00000E+00  9.000E+00
       1     1     1     2   511     0  5.511282695E+00  1.072898210E+01  9.026581358E+01  9.106811953E+01  0.000000000E+00  0.00000E+00  9.000E+00
#pdf   1 -1 0.13287278E-01 0.34930900E-02 0.88565841E+02 0.61996704E+00 0.87017033E+00
#rwgt            1           6   743.70012763542786         54217137    18439664           0
</event>
<event>
      6  10013  3.31628E+03  1.23420E+01 -1.00000E+00  1.85702E-01
       5    -1     0     0   501     0  0.000000000E+00  0.000000000E+00  3.439290624E+01  3.439290624E+01  0.000000000E+00  0.00000E+00  9.000E+00
      21    -1     0     0   511   501  0.000000000E+00  0.000000000E+00 -8.876870510E+01  8.876870510E+01  0.000000000E+00  0.00000E+00  9.000E+00
      23     2     1     2     0     0 -1.122295498E+01 -5.135245700E+00 -3.508112899E+01  1.002572503E+02  9.310480744E+01  0.00000E+00  9.000E+00
      13     1     3     3     0     0 -3.885341893E+01 -3.317848606E+01 -6.276478498E+00  5.147626099E+01  1.056583668E-01  0.00000E+00  9.000E+00
     -13     1     3     3     0     0  2.763046395E+01  2.804324036E+01 -2.880465049E+01  4.878098935E+01  1.056583668E-01  0.00000E+00  9.000E+00
       5     1     1     2   511     0  1.122295498E+01  5.135245700E+00 -1.929466987E+01  2.290436099E+01  0.000000000E+00  0.00000E+00  9.000E+00
#pdf   5 -5 0.49700702E-02 0.10320363E-01 0.93104807E+02 0.35550648E+00 0.21665112E+00
#rwgt            1          10   86.270497856682198         54217137    18439722           0
</event>
<event>
      6  10013  3.31628E+03  3.88069E+00 -1.00000E+00  2.66497E-01
       2    -1     0     0   511     0  0.000000000E+00  0.000000000E+00  1.037739265E+02  1.037739265E+02  0.000000000E+00  0.00000E+00  9.000E+00
      -2    -1     0     0     0   501  0.000000000E+00  0.000000000E+00 -1.157960143E+01  1.157960143E+01  0.000000000E+00  0.00000E+00  9.000E+00
      23     2     1     2     0     0  3.688865219E+00 -1.204985728E+00  8.535186582E+01  1.074872095E+02  6.521885838E+01  0.00000E+00  9.000E+00
      13     1     3     3     0     0  9.689260160E+00 -3.157935959E+01  5.482484097E+01  6.400712512E+01  1.056583668E-01  0.00000E+00  9.000E+00
     -13     1     3     3     0     0 -6.000394941E+00  3.037437387E+01  3.052702485E+01  4.348008437E+01  1.056583668E-01  0.00000E+00  9.000E+00
      21     1     1     2   511   501 -3.688865219E+00  1.204985728E+00  6.842459286E+00  7.866318471E+00  1.460009660E-07  0.00000E+00  9.000E+00
#pdf   2 -2 0.14807585E-01 0.16997124E-02 0.65218858E+02 0.69707417E+00 0.11121596E+01
#rwgt            1           7   721.70693827534546         54217137    18440176           0
</event>
<event>
      6  10013  3.31628E+03  2.26065E+01 -1.00000E+00  1.62056E-01
      -1    -1     0     0     0   501  0.000000000E+00  0.000000000E+00  2.909467302E+01  2.909467302E+01  0.000000000E+00  0.00000E+00  9.000E+00
      21    -1     0     0   501   511  0.000000000E+00  0.000000000E+00 -2.816442128E+01  2.816442128E+01  0.000000000E+00  0.00000E+00  9.000E+00
      23     2     1     2     0     0  1.781410996E+01  1.391801387E+01  9.858912238E+00  3.295323900E+01  2.185552988E+01  0.00000E+00  9.000E+00
      13     1     3     3     0     0  2.035356711E+01  6.148674276E+00  1.583512877E+00  2.132117647E+01  1.056583668E-01  0.00000E+00  9.000E+00
     -13     1     3     3     0     0 -2.539457154E+00  7.769339593E+00  8.275399361E+00  1.163206253E+01  1.056583668E-01  0.00000E+00  9.000E+00
      -1     1     1     2     0   511 -1.781410996E+01 -1.391801387E+01 -8.928660503E+00  2.430585530E+01  0.000000000E+00  0.00000E+00  9.000E+00
#pdf  -1  1 0.22890162E-02 0.12347730E-02 0.21855530E+02 0.82665828E+00 0.10659722E+01
#rwgt            1           5   160.19578207505918         54217137    18440225           0
</event>
<event>
      6  10013  3.31628E+03  4.63017E+01 -1.00000E+00  1.40977E-01
       1    -1     0     0   501     0  0.000000000E+00  0.000000000E+00  9.730794453E+00  9.730794453E+00  0.000000000E+00  0.00000E+00  9.000E+00
      -1    -1     0     0     0   511  0.000000000E+00  0.000000000E+00 -5.671278798E+02  5.671278798E+02  0.000000000E+00  0.00000E+00  9.000E+00
      23     2     1     2     0     0 -4.183416506E+01  1.984318401E+01 -3.699265413E+02  3.837549348E+02  9.098546414E+01  0.00000E+00  9.000E+00
      13     1     3     3     0     0  2.441452868E+01 -1.131342663E+01 -6.925432895E+01  7.429829120E+01  1.056583668E-01  0.00000E+00  9.000E+00
     -13     1     3     3     0     0 -6.624869374E+01  3.115661064E+01 -3.006722124E+02  3.094566436E+02  1.056583668E-01  0.00000E+00  9.000E+00
      21     1     1     2   501   511  4.183416506E+01 -1.984318401E+01 -1.874705440E+02  1.931037395E+02  0.000000000E+00  0.00000E+00  9.000E+00
#pdf   1 -1 0.94802678E-03 0.51669793E-01 0.90985464E+02 0.15301399E+01 0.20888459E+00
#rwgt            1           6   455.80518490896623         54217137    18440313           0
</event>
<event>
      6  10013  3.31628E+03  4.18393E+00 -1.00000E+00  2.58849E-01
       2    -1     0     0   511     0  0.000000000E+00  0.000000000E+00  6.258029404E+02  6.258029404E+02  0.000000000E+00  0.00000E+00  9.000E+00
      -2    -1     0     0     0   501  0.000000000E+00  0.000000000E+00 -1.801982362E+00  1.801982362E+00  0.000000000E+00  0.00000E+00  9.000E+00
      23     2     1     2     0     0  4.050471192E+00  1.048293550E+00  3.490537936E+02  3.526259263E+02  4.988975716E+01  0.00000E+00  9.000E+00
      13     1     3     3     0     0 -2.279511856E+01  3.617609439E+00  1.653921454E+02  1.669948426E+02  1.056583668E-01  0.00000E+00  9.000E+00
     -13     1     3     3     0     0  2.684558976E+01 -2.569315889E+00  1.836616482E+02  1.856310838E+02  1.056583668E-01  0.00000E+00  9.000E+00
      21     1     1     2   511   501 -4.050471192E+00 -1.048293550E+00  2.749471644E+02  2.749789964E+02  3.814697266E-06  0.00000E+00  9.000E+00
#pdf   2 -2 0.53786552E-01 0.27381824E-03 0.49889757E+02 0.63021638E+00 0.20754009E+01
#rwgt            1           7   3086.4247439742962         54217137    18440350           0
</event>
<event>
      6  10013  3.31628E+03  1.59211E+00 -1.00000E+00  4.16370E-01
      -4    -1     0     0     0   501  0.000000000E+00  0.000000000E+00  4.501471454E+00  4.501471454E+00  0.000000000E+00  0.00000E+00  9.000E+00
      21    -1     0     0   501   511  0.000000000E+00  0.000000000E+00 -3.927241081E+01  3.927241081E+01  0.000000000E+00  0.00000E+00  9.000E+00
      23     2     1     2     0     0 -9.376687562E-02 -1.589344349E+00 -1.858271360E+01  2.750755321E+01  2.021913528E+01  0.00000E+00  9.000E+00
      13     1     3     3     0     0  3.642238638E+00 -2.371132307E+00  3.196586183E+00  5.396063160E+00  1.056583668E-01  0.00000E+00  9.000E+00
     -13     1     3     3     0     0 -3.736005514E+00  7.817879578E-01 -2.177929978E+01  2.211149005E+01  1.056583668E-01  0.00000E+00  9.000E+00
      -4     1     1     2     0   511  9.376687562E-02  1.589344349E+00 -1.618822576E+01  1.626632905E+01  0.000000000E+00  0.00000E+00  9.000E+00
#pdf  -4  4 0.68440760E-03 0.35344645E-02 0.20219135E+02 0.90815522E+00 0.46634945E+00
#rwgt            1           2   424.84701038932883         54217137    18440468           0
</event>
<event>
      6  10013  3.31628E+03  9.34622E+00 -1.00000E+00  1.99153E-01
       2    -1     0     0   501     0  0.000000000E+00  0.000000000E+00  1.067531100E+02  1.067531100E+02  0.000000000E+00  0.00000E+00  9.000E+00
      21    -1     0     0   511   501  0.000000000E+00  0.000000000E+00 -2.408555745E+01  2.408555745E+01  0.000000000E+00  0.00000E+00  9.000E+00
      23     2     1     2     0     0 -7.584872265E+00 -5.460907135E+00  6.839042492E+01  1.137744309E+02  9.044345814E+01  0.00000E+00  9.000E+00
      13     1     3     3     0     0 -3.869923483E+01  2.369477850E+01  4.945710051E+01  6.711996170E+01  1.056583668E-01  0.00000E+00  9.000E+00
     -13     1     3     3     0     0  3.111436257E+01 -2.915568564E+01  1.893332441E+01  4.665446924E+01  1.056583668E-01  0.00000E+00  9.000E+00
       2     1     1     2   511     0  7.584872265E+00  5.460907135E+00  1.427712761E+01  1.706423649E+01  0.000000000E+00  0.00000E+00  9.000E+00
#pdf   2 -2 0.13938457E-01 0.34725853E-02 0.90443458E+02 0.71609794E+00 0.86213384E+00
#rwgt            1           7   653.72772057501550         54217137    18440603           0
</event>
<event>
      6  10013  3.31628E+03  2.25106E+00 -1.00000E+00  3.40503E-01
      -1    -1     0     0     0   501  0.000000000E+00  0.000000000E+00  1.734228986E+00  1.734228986E+00  0.000000000E+00  0.00000E+00  9.000E+00
       1    -1     0     0   511     0  0.000000000E+00  0.000000000E+00 -1.323367934E+03  1.323367934E+03  0.000000000E+00  0.00000E+00  9.000E+00
      23     2     1     2     0     0  1.945901626E+00  1.131695550E+00 -1.257181413E+03  1.260610572E+03  9.289156912E+01  0.00000E+00  9.000E+00
      13     1     3     3     0     0 -4.405893219E+01  1.088746815E+01 -6.832456402E+02  6.847512998E+02  1.056583668E-01  0.00000E+00  9.000E+00
     -13     1     3     3     0     0  4.600483381E+01 -9.755772600E+00 -5.739357725E+02  5.758592727E+02  1.056583668E-01  0.00000E+00  9.000E+00
      21     1     1     2   511   501 -1.945901626E+00 -1.131695550E+00 -6.445229197E+01  6.449159022E+01  0.000000000E+00  0.00000E+00  9.000E+00
#pdf  -1  1 0.26370410E-03 0.19361946E+00 0.92891569E+02 0.24195851E+01 0.23816344E+00
#rwgt            1           5   1460.2988473796102         54217137    18440673           0
</event>
<event>
      6  10013  3.31628E+03  3.26254E+01 -1.00000E+00  1.50518E-01
       2    -1     0     0   501     0  0.000000000E+00  0.000000000E+00  4.776367303E+02  4.776367303E+02  0.000000000E+00  0.00000E+00  9.000E+00
      21    -1     0     0   511   501  0.000000000E+00  0.000000000E+00 -8.999804124E+00  8.999804124E+00  0.000000000E+00  0.00000E+00  9.000E+00
      23     2     1     2     0     0 -2.324665563E+01  2.289128797E+01  3.237984180E+02  3.381689908E+02  9.191535653E+01  0.00000E+00  9.000E+00
      13     1     3     3     0     0  2.078514719E+01 -1.366158715E+01  2.028046346E+02  2.043242332E+02  1.056583668E-01  0.00000E+00  9.000E+00
     -13     1     3     3     0     0 -4.403180282E+01  3.655287513E+01  1.209937834E+02  1.338447576E+02  1.056583668E-01  0.00000E+00  9.000E+00
       2     1     1     2   511     0  2.324665563E+01 -2.289128797E+01  1.448385082E+02  1.484675436E+02  0.000000000E+00  0.00000E+00  9.000E+00
#pdf   2 -2 0.47987264E-01 0.10417499E-02 0.91915357E+02 0.63439620E+00 0.14273357E+01
#rwgt            1           7   1036.5604518085527         54217137    18440896           0
</event>
<event>
      6  10013  3.31628E+03  6.07573E+00 -1.00000E+00  2.24551E-01
      21    -1     0     0   511   501  0.000000000E+00  0.000000000E+00  4.548078247E+00  4.548078247E+00  0.000000000E+00  0.00000E+00  9.000E+00
       4    -1     0     0   501     0  0.000000000E+00  0.000000000E+00 -4.306764112E+01  4.306764112E+01  0.000000000E+00  0.00000E+00  9.000E+00
      23     2     1     2     0     0  2.561648945E+00  5.509306067E+00 -2.894397865E+01  3.627524707E+01  2.100536006E+01  0.00000E+00  9.000E+00
      13     1     3     3     0     0  7.417397043E-01  1.339051460E+01 -1.473175684E+01  1.992214553E+01  1.056583668E-01  0.00000E+00  9.000E+00
     -13     1     3     3     0     0  1.819909241E+00 -7.881208537E+00 -1.421222180E+01  1.635310154E+01  1.056583668E-01  0.00000E+00  9.000E+00
       4     1     1     2   511     0 -2.561648945E+00 -5.509306067E+00 -9.575584227E+00  1.134047230E+01  0.000000000E+00  0.00000E+00  9.000E+00
#pdf  -4  4 0.54173703E-03 0.48193119E-02 0.21005360E+02 0.10024292E+01 0.40649684E+00
#rwgt            1           2   375.02196653846585         54217137    18440929           0
</event>
<event>
      6  10013  3.31628E+03  1.21833E+01 -1.00000E+00  1.86286E-01
      -1    -1     0     0     0   501  0.000000000E+00  0.000000000E+00  4.673149692E+00  4.673149692E+00  0.000000000E+00  0.00000E+00  9.000E+00
       1    -1     0     0   511     0  0.000000000E+00  0.000000000E+00 -5.848820750E+02  5.848820750E+02  0.000000000E+00  0.00000E+00  9.000E+00
      23     2     1     2     0     0 -1.123199769E+01  4.719741098E+00 -4.783825549E+02  4.870025873E+02  9.040584862E+01  0.00000E+00  9.000E+00
      13     1     3     3     0     0 -4.062586275E+01 -2.338837677E+01 -3.230740420E+02  3.264572325E+02  1.056583668E-01  0.00000E+00  9.000E+00
     -13     1     3     3     0     0  2.939386506E+01  2.810811787E+01 -1.553085130E+02  1.605453548E+02  1.056583668E-01  0.00000E+00  9.000E+00
      21     1     1     2   511   501  1.123199769E+01 -4.719741098E+00 -1.018263704E+02  1.025526374E+02  1.348699152E-06  0.00000E+00  9.000E+00
#pdf  -1  1 0.65713911E-03 0.73595122E-01 0.90405849E+02 0.17109273E+01 0.40137829E+00
#rwgt            1           5   939.41324949865907         54217137    18440968           0
</event>
<event>
      6  10013  3.31628E+03  2.08968E+01 -1.00000E+00  1.64772E-01
      21    -1     0     0   511   501  0.000000000E+00  0.000000000E+00  1.194407160E+02  1.194407160E+02  0.000000000E+00  0.00000E+00  9.000E+00
       1    -1     0     0   501     0  0.000000000E+00  0.000000000E+00 -1.015181372E+02  1.015181372E+02  0.000000000E+00  0.00000E+00  9.000E+00
      23     2     1     2     0     0 -7.125544428E+00  1.964436602E+01 -7.947140420E+01  1.213482994E+02  8.929183152E+01  0.00000E+00  9.000E+00
      13     1     3     3     0     0 -6.735319970E+00  2.183512707E+01 -9.904580953E+01  1.016475325E+02  1.056583668E-01  0.00000E+00  9.000E+00
     -13     1     3     3     0     0 -3.902244581E-01 -2.190761052E+00  1.957440532E+01  1.970076690E+01  1.056583668E-01  0.00000E+00  9.000E+00
       1     1     1     2   511     0  7.125544428E+00 -1.964436602E+01  9.739398306E+01  9.961055384E+01  0.000000000E+00  0.00000E+00  9.000E+00
#pdf  -1  1 0.31365517E-02 0.15041263E-01 0.89291832E+02 0.91197155E+00 0.59892248E+00
#rwgt            1           5   778.54247771350867         54217137    18441015           0
</event>
<event>
      6  10013  3.31628E+03  1.04523E+00 -1.00000E+00  6.19189E-01
       2    -1     0     0   511     0  0.000000000E+00  0.000000000E+00  1.036927180E+03  1.036927180E+03  0.000000000E+00  0.00000E+00  9.000E+00
      -2    -1     0     0     0   501  0.000000000E+00  0.000000000E+00 -2.244134219E+00  2.244134219E+00  0.000000000E+00  0.00000E+00  9.000E+00
      23     2     1     2     0     0 -5.556392027E-01  8.853131066E-01  9.465633474E+02  9.510454170E+02  9.221779698E+01  0.00000E+00  9.000E+00
      13     1     3     3     0     0 -9.684482076E+00 -2.429055554E+00  9.032541333E+00  1.346430357E+01  1.056583668E-01  0.00000E+00  9.000E+00
     -13     1     3     3     0     0  9.128842874E+00  3.314368661E+00  9.375308061E+02  9.375811135E+02  1.056583668E-01  0.00000E+00  9.000E+00
      21     1     1     2   511   501  5.556392027E-01 -8.853131066E-01  8.811969863E+01  8.812589744E+01  1.651812370E-06  0.00000E+00  9.000E+00
#pdf   2 -2 0.14596053E+00 0.34475244E-03 0.92217797E+02 0.55861169E+00 0.21834414E+01
#rwgt            1           7   2202.8304556180842         54217137    18441075           0
</event>
<event>
      6  10013  3.31628E+03  9.51179E+00 -1.00000E+00  1.98244E-01
       2    -1     0     0   511     0  0.000000000E+00  0.000000000E+00  9.740542437E-01  9.740542437E-01  0.000000000E+00  0.00000E+00  9.000E+00
      -2    -1     0     0     0   501  0.000000000E+00  0.000000000E+00 -3.620908580E+02  3.620908580E+02  0.000000000E+00  0.00000E+00  9.000E+00
      23     2     1     2     0     0 -8.111959145E+00 -4.966924957E+00 -3.110785531E+02  3.121306335E+02  2.377376561E+01  0.00000E+00  9.000E+00
      13     1     3     3     0     0 -7.599275277E-01 -1.221666398E+01 -2.393338764E+02  2.396466981E+02  1.056583668E-01  0.00000E+00  9.000E+00
     -13     1     3     3     0     0 -7.352031617E+00  7.249739024E+00 -7.174467675E+01  7.248393539E+01  1.056583668E-01  0.00000E+00  9.000E+00
      21     1     1     2   511   501  8.111959145E+00  4.966924957E+00 -5.003825061E+01  5.093427872E+01  9.536743164E-07  0.00000E+00  9.000E+00
#pdf   2 -2 0.75138438E-04 0.44508923E-01 0.23773766E+02 0.25677741E+01 0.19842924E+00
#rwgt            1           7   554.61655690026203         54217137    18441418           0
</event>
<event>
      6  10013  3.31628E+03  6.84448E+00 -1.00000E+00  2.16870E-01
       2    -1     0     0   501     0  0.000000000E+00  0.000000000E+00  3.059330758E+03  3.059330758E+03  0.000000000E+00  0.00000E+00  9.000E+00
      21    -1     0     0   511   501  0.000000000E+00  0.000000000E+00 -5.612191600E+00  5.612191600E+00  0.000000000E+00  0.00000E+00  9.000E+00
      23     2     1     2     0     0 -6.609177183E+00  1.779237349E+00  3.056306645E+03  3.057625500E+03  8.953515021E+01  0.00000E+00  9.000E+00
      13     1     3     3     0     0  4.310720125E+00  4.488438811E+01  1.427421576E+03  1.428133593E+03  1.056583668E-01  0.00000E+00  9.000E+00
     -13     1     3     3     0     0 -1.091989731E+01 -4.310515076E+01  1.628885069E+03  1.629491907E+03  1.056583668E-01  0.00000E+00  9.000E+00
       2     1     1     2   511     0  6.609177183E+00 -1.779237349E+00 -2.588079060E+00  7.317449132E+00  0.000000000E+00  0.00000E+00  9.000E+00
#pdf   2 -2 0.46893429E+00 0.10115525E-03 0.89535150E+02 0.13453337E+00 0.33791227E+01
#rwgt            1           7   2787.9700867033102         54217137    18441445           0
</event>
<event>
      6  10013  3.31628E+03  8.21946E+00 -1.00000E+00  2.06081E-01
       5    -1     0     0   501     0  0.000000000E+00  0.000000000E+00  8.565931297E-01  8.565931297E-01  0.000000000E+00  0.00000E+00  9.000E+00
      21    -1     0     0   511   501  0.000000000E+00  0.000000000E+00 -4.033640152E+02  4.033640152E+02  0.000000000E+00  0.00000E+00  9.000E+00
      23     2     1     2     0     0 -1.130245624E+00  8.141377036E+00 -3.124261569E+02  3.137651287E+02  2.776495896E+01  0.00000E+00  9.000E+00
      13     1     3     3     0     0 -9.568955445E+00 -6.710989633E+00 -1.098897460E+02  1.105095911E+02  1.056583668E-01  0.00000E+00  9.000E+00
     -13     1     3     3     0     0  8.438709821E+00  1.485236667E+01 -2.025364110E+02  2.032555376E+02  1.056583668E-01  0.00000E+00  9.000E+00
       5     1     1     2   511     0  1.130245624E+00 -8.141377036E+00 -9.008126516E+01  9.045547970E+01  0.000000000E+00  0.00000E+00  9.000E+00
#pdf   5 -5 0.98761090E-04 0.46187185E-01 0.27764959E+02 0.13684070E+01 0.39593228E-01
#rwgt            1          10   22.342731989521351         54217137    18441617           0
</event>
<event>
      6  10013  3.31628E+03  3.36562E+00 -1.00000E+00  2.82367E-01
      -3    -1     0     0     0   501  0.000000000E+00  0.000000000E+00  1.317001113E+02  1.317001113E+02  0.000000000E+00  0.00000E+00  9.000E+00
       3    -1     0     0   511     0  0.000000000E+00  0.000000000E+00 -1.724700515E+01  1.724700515E+01  0.000000000E+00  0.00000E+00  9.000E+00
      23     2     1     2     0     0  1.156094421E+00  3.160824464E+00  1.149309106E+02  1.455477544E+02  8.923960575E+01  0.00000E+00  9.000E+00
      13     1     3     3     0     0 -1.827266397E+01 -3.881619510E+01  5.116170129E+01  6.676914028E+01  1.056583668E-01  0.00000E+00  9.000E+00
     -13     1     3     3     0     0  1.942875839E+01  4.197701956E+01  6.376920927E+01  7.877861409E+01  1.056583668E-01  0.00000E+00  9.000E+00
      21     1     1     2   511   501 -1.156094421E+00 -3.160824464E+00 -4.778044054E-01  3.399362095E+00  5.550557534E-08  0.00000E+00  9.000E+00
#pdf  -3  3 0.20022586E-01 0.23534687E-02 0.89239606E+02 0.31960432E+00 0.98279006E+00
#rwgt            1           3   376.55157676535993         54217137    18441852           0
</event>
<event>
      6  10013  3.31628E+03  1.68369E+01 -1.00000E+00  1.72739E-01
      21    -1     0     0   511   501  0.000000000E+00  0.000000000E+00  4.856500185E+01  4.856500185E+01  0.000000000E+00  0.00000E+00  9.000E+00
       5    -1     0     0   501     0  0.000000000E+00  0.000000000E+00 -6.254413967E+01  6.254413967E+01  0.000000000E+00  0.00000E+00  9.000E+00
      23     2     1     2     0     0 -8.920293718E+00 -1.427973986E+01 -6.886072350E+00  9.283910626E+01  9.103954662E+01  0.00000E+00  9.000E+00
      13     1     3     3     0     0 -2.237098666E-01  1.649700624E+01 -4.213108936E+01  4.524644865E+01  1.056583668E-01  0.00000E+00  9.000E+00
     -13     1     3     3     0     0 -8.696583851E+00 -3.077674610E+01  3.524501701E+01  4.759265761E+01  1.056583668E-01  0.00000E+00  9.000E+00
       5     1     1     2   511     0  8.920293718E+00  1.427973986E+01 -7.093065472E+00  1.827003525E+01  0.000000000E+00  0.00000E+00  9.000E+00
#pdf  -5  5 0.65015204E-02 0.75432507E-02 0.91039547E+02 0.29747510E+00 0.26925009E+00
#rwgt            1           1   68.426962778954916         54217137    18441957           0
</event>
<event>
      6  10013  3.31628E+03  4.75269E+00 -1.00000E+00  2.46895E-01
       2    -1     0     0   501     0  0.000000000E+00  0.000000000E+00  2.046592998E+03  2.046592998E+03  0.000000000E+00  0.00000E+00  9.000E+00
      21    -1     0     0   511   501  0.000000000E+00  0.000000000E+00 -1.353682252E-01  1.353682252E-01  0.000000000E+00  0.00000E+00  9.000E+00
      23     2     1     2     0     0  3.337041875E+00  3.384109998E+00  1.184257173E+03  1.184514810E+03  2.424245025E+01  0.00000E+00  9.000E+00
      13     1     3     3     0     0  5.307020567E+00 -1.435988730E+00  6.144649044E+01  6.169204878E+01  1.056583668E-01  0.00000E+00  9.000E+00
     -13     1     3     3     0     0 -1.969978692E+00  4.820098728E+00  1.122810682E+03  1.122822762E+03  1.056583668E-01  0.00000E+00  9.000E+00
       2     1     1     2   511     0 -3.337041875E+00 -3.384109998E+00  8.622004572E+02  8.622135562E+02  0.000000000E+00  0.00000E+00  9.000E+00
#pdf   2 -2 0.17880937E+00 0.19448050E-04 0.24242450E+02 0.56564908E+00 0.38530841E+01
#rwgt            1           7   3220.8991605168935         54217137    18442182           0
</event>
<event>
      6  10013  3.31628E+03  3.49361E+00 -1.00000E+00  2.78016E-01
       2    -1     0     0   501     0  0.000000000E+00  0.000000000E+00  2.165447211E+03  2.165447211E+03  0.000000000E+00  0.00000E+00  9.000E+00
      21    -1     0     0   511   501  0.000000000E+00  0.000000000E+00 -9.592376630E-02  9.592376630E-02  0.000000000E+00  0.00000E+00  9.000E+00
      23     2     1     2     0     0 -1.732188800E+00  3.033946167E+00  1.977629679E+03  1.977789020E+03  2.486073581E+01  0.00000E+00  9.000E+00
      13     1     3     3     0     0  3.066445646E+00  2.502178814E+00  1.902586320E+03  1.902590439E+03  1.056583668E-01  0.00000E+00  9.000E+00
     -13     1     3     3     0     0 -4.798634446E+00  5.317673533E-01  7.504335924E+01  7.519858109E+01  1.056583668E-01  0.00000E+00  9.000E+00
       2     1     1     2   511     0  1.732188800E+00 -3.033946167E+00  1.877216081E+02  1.877541143E+02  0.000000000E+00  0.00000E+00  9.000E+00
#pdf   2 -2 0.30130248E+00 0.12137760E-04 0.24860736E+02 0.39750183E+00 0.44657980E+01
#rwgt            1           7   11002.817051873131         54217137    18442242           0
</event>
<event>
      6  10013  3.31628E+03  7.78711E+00 -1.00000E+00  2.09147E-01
       3    -1     0     0   511     0  0.000000000E+00  0.000000000E+00  2.261949363E+00  2.261949363E+00  0.000000000E+00  0.00000E+00  9.000E+00
      -3    -1     0     0     0   501  0.000000000E+00  0.000000000E+00 -1.050163632E+03  1.050163632E+03  0.000000000E+00  0.00000E+00  9.000E+00
      23     2     1     2     0     0 -4.090979908E+00  6.625928686E+00 -1.011626583E+03  1.015324073E+03  8.622059697E+01  0.00000E+00  9.000E+00
      13     1     3     3     0     0  4.369587437E-01  1.142620853E+01 -1.007447708E+03  1.007512602E+03  1.056583668E-01  0.00000E+00  9.000E+00
     -13     1     3     3     0     0 -4.527938651E+00 -4.800279846E+00 -4.178875383E+00  7.811470936E+00  1.056583668E-01  0.00000E+00  9.000E+00
      21     1     1     2   511   501  4.090979908E+00 -6.625928686E+00 -3.627509999E+01  3.710150841E+01  9.536743164E-07  0.00000E+00  9.000E+00
#pdf   3 -3 0.28326936E-03 0.15528723E+00 0.86220597E+02 0.22634776E+01 0.28974208E-01
#rwgt            1           8   148.16280047459429         54217137    18442315           0
</event>
<event>
      6  10013  3.31628E+03  3.71495E+00 -1.00000E+00  2.71157E-01
       3    -1     0     0   511     0  0.000000000E+00  0.000000000E+00  4.569687161E+00  4.569687161E+00  0.000000000E+00  0.00000E+00  9.000E+00
      -3    -1     0     0     0   501  0.000000000E+00  0.000000000E+00 -4.958036565E+02  4.958036565E+02  0.000000000E+00  0.00000E+00  9.000E+00
      23     2     1     2     0     0 -2.271765576E+00  2.939376840E+00 -4.744041849E+02  4.831384228E+02  9.137616767E+01  0.00000E+00  9.000E+00
      13     1     3     3     0     0 -4.653694234E+00  4.686385859E+01 -2.235860303E+02  2.284920178E+02  1.056583668E-01  0.00000E+00  9.000E+00
     -13     1     3     3     0     0  2.381928658E+00 -4.392448175E+01 -2.508181547E+02  2.546464049E+02  1.056583668E-01  0.00000E+00  9.000E+00
      21     1     1     2   511   501  2.271765576E+00 -2.939376840E+00 -1.682978441E+01  1.723492089E+01  3.371747881E-07  0.00000E+00  9.000E+00
#pdf   3 -3 0.67130988E-03 0.73596326E-01 0.91376168E+02 0.16500626E+01 0.96967824E-01
#rwgt            1           8   255.27901405610302         54217137    18442362           0
</event>
<event>
      6  10013  3.31628E+03  1.09387E+01 -1.00000E+00  1.91302E-01
      -2    -1     0     0     0   511  0.000000000E+00  0.000000000E+00  5.550456184E+00  5.550456184E+00  0.000000000E+00  0.00000E+00  9.000E+00
       2    -1     0     0   501     0  0.000000000E+00  0.000000000E+00 -1.371214337E+02  1.371214337E+02  0.000000000E+00  0.00000E+00  9.000E+00
      23     2     1     2     0     0 -1.089318162E+01  9.970051543E-01 -1.191124752E+02  1.260926950E+02  3.989900427E+01  0.00000E+00  9.000E+00
      13     1     3     3     0     0 -2.090956757E+01 -1.057899909E+01 -4.882282066E+01  5.415537109E+01  1.056583668E-01  0.00000E+00  9.000E+00
     -13     1     3     3     0     0  1.001638594E+01  1.157600424E+01 -7.028965458E+01  7.193732388E+01  1.056583668E-01  0.00000E+00  9.000E+00
      21     1     1     2   501   511  1.089318162E+01 -9.970051543E-01 -1.245850230E+01  1.657919493E+01  2.384185791E-07  0.00000E+00  9.000E+00
#pdf  -2  2 0.51783147E-03 0.18190681E-01 0.39899004E+02 0.15766533E+01 0.66148119E+00
#rwgt            1           4   1631.1708418571332         54217137    18442508           0
</event>
<event>
      5  10013  3.31628E+03  8.94427E-01 -1.00000E+00  7.25751E-01
       2    -1     0     0   501     0  0.000000000E+00  0.000000000E+00  1.410875743E+02  1.410875743E+02  0.000000000E+00  0.00000E+00  9.000E+00
      -2    -1     0     0     0   501  0.000000000E+00  0.000000000E+00 -1.279823521E+01  1.279823521E+01  0.000000000E+00  0.00000E+00  9.000E+00
      23     2     1     2     0     0  0.000000000E+00  0.000000000E+00  1.282893391E+02  1.538858095E+02  8.498639801E+01  0.00000E+00  9.000E+00
      13     1     3     3     0     0 -3.260532931E+01 -2.721635193E+01  6.658979058E+01  7.898131859E+01  1.056583668E-01  0.00000E+00  9.000E+00
     -13     1     3     3     0     0  3.260532931E+01  2.721635193E+01  6.169954852E+01  7.490449094E+01  1.056583668E-01  0.00000E+00  9.000E+00
#pdf   2 -2 0.21705781E-01 0.19689593E-02 0.84986398E+02 0.67154388E+00 0.10897512E+01
#rwgt            1           7   568.84053944194920         54217137    18442612           0
</event>
<event>
      6  10013  3.31628E+03  6.99921E+00 -1.00000E+00  2.15489E-01
       3    -1     0     0   501     0  0.000000000E+00  0.000000000E+00  5.587352001E+01  5.587352001E+01  0.000000000E+00  0.00000E+00  9.000E+00
      -3    -1     0     0     0   511  0.000000000E+00  0.000000000E+00 -5.247929218E+00  5.247929218E+00  0.000000000E+00  0.00000E+00  9.000E+00
      23     2     1     2     0     0  3.881129193E+00  5.824578218E+00  4.733698512E+01  5.338815740E+01  2.367522577E+01  0.00000E+00  9.000E+00
      13     1     3     3     0     0 -2.022167627E+00  9.060569288E+00  5.050278239E+00  1.056880086E+01  1.056583668E-01  0.00000E+00  9.000E+00
     -13     1     3     3     0     0  5.903296820E+00 -3.235991070E+00  4.228670688E+01  4.281935654E+01  1.056583668E-01  0.00000E+00  9.000E+00
      21     1     1     2   501   511 -3.881129193E+00 -5.824578218E+00  3.288605671E+00  7.733291827E+00  1.192092896E-07  0.00000E+00  9.000E+00
#pdf   3 -3 0.74301908E-02 0.44637678E-03 0.23675226E+02 0.49144781E+00 0.14057135E+01
#rwgt            1           8   184.31456309890061         54217137    18442960           0
</event>
<event>
      6  10013  3.31628E+03  4.82973E+00 -1.00000E+00  2.45469E-01
       2    -1     0     0   501     0  0.000000000E+00  0.000000000E+00  4.126261325E+02  4.126261325E+02  0.000000000E+00  0.00000E+00  9.000E+00
      21    -1     0     0   511   501  0.000000000E+00  0.000000000E+00 -1.222564636E+01  1.222564636E+01  0.000000000E+00  0.00000E+00  9.000E+00
      23     2     1     2     0     0  4.711750158E+00  1.060975917E+00  4.059419291E+02  4.175010068E+02  9.744185260E+01  0.00000E+00  9.000E+00
      13     1     3     3     0     0  5.013628159E+01  1.035235347E+01  2.115948894E+02  2.176998538E+02  1.056583668E-01  0.00000E+00  9.000E+00
     -13     1     3     3     0     0 -4.542453143E+01 -9.291377549E+00  1.943470397E+02  1.998011530E+02  1.056583668E-01  0.00000E+00  9.000E+00
       2     1     1     2   511     0 -4.711750158E+00 -1.060975917E+00 -5.541442962E+00  7.350772038E+00  0.000000000E+00  0.00000E+00  9.000E+00
#pdf   2 -2 0.63264101E-01 0.88806963E-03 0.97441853E+02 0.62529515E+00 0.15349939E+01
#rwgt            1           7   1026.8252191450433         54217137    18443007           0
</event>
<event>
      6  10013  3.31628E+03  1.76894E+00 -1.00000E+00  3.89681E-01
      -4    -1     0     0     0   501  0.000000000E+00  0.000000000E+00  2.278599497E+01  2.278599497E+01  0.000000000E+00  0.00000E+00  9.000E+00
      21    -1     0     0   501   511  0.000000000E+00  0.000000000E+00 -5.091811270E+01  5.091811270E+01  0.000000000E+00  0.00000E+00  9.000E+00
      23     2     1     2     0     0 -2.652872439E-01  1.748938060E+00  1.682559742E+01  2.871160482E+01  2.319755075E+01  0.00000E+00  9.000E+00
      13     1     3     3     0     0 -6.965268039E+00  1.006332847E+01  1.143430615E+01  1.674933012E+01  1.056583668E-01  0.00000E+00  9.000E+00
     -13     1     3     3     0     0  6.699980795E+00 -8.314390409E+00  5.391291272E+00  1.196227469E+01  1.056583668E-01  0.00000E+00  9.000E+00
      -4     1     1     2     0   511  2.652872439E-01 -1.748938060E+00 -4.495771515E+01  4.499250285E+01  0.000000000E+00  0.00000E+00  9.000E+00
#pdf  -4  4 0.34927215E-02 0.91166148E-03 0.23197551E+02 0.48722605E+00 0.85609888E+00
#rwgt            1           2   416.65826393980200         54217137    18443116           0
</event>
<event>
      6  10013  3.31628E+03  4.79580E+00 -1.00000E+00  2.46092E-01
       2    -1     0     0   511     0  0.000000000E+00  0.000000000E+00  4.741794495E+02  4.741794495E+02  0.000000000E+00  0.00000E+00  9.000E+00
      -2    -1     0     0     0   501  0.000000000E+00  0.000000000E+00 -5.191359515E+00  5.191359515E+00  0.000000000E+00  0.00000E+00  9.000E+00
      23     2     1     2     0     0 -3.456726330E+00  3.324266639E+00  4.025600572E+02  4.127698837E+02  9.111189592E+01  0.00000E+00  9.000E+00
      13     1     3     3     0     0 -3.893747975E+00 -4.386071136E+01  1.983717669E+02  2.032001288E+02  1.056583668E-01  0.00000E+00  9.000E+00
     -13     1     3     3     0     0  4.370216454E-01  4.718497800E+01  2.041882902E+02  2.095697549E+02  1.056583668E-01  0.00000E+00  9.000E+00
      21     1     1     2   511   501  3.456726330E+00 -3.324266639E+00  6.642803286E+01  6.660092534E+01  0.000000000E+00  0.00000E+00  9.000E+00
#pdf   2 -2 0.62630985E-01 0.78428556E-03 0.91111896E+02 0.62591407E+00 0.15935149E+01
#rwgt            1           7   1250.6765324613596         54217137    18443243           0
</event>
<event>
      6  10013  3.31628E+03  3.47905E+00 -1.00000E+00  2.78496E-01
       4    -1     0     0   501     0  0.000000000E+00  0.000000000E+00  9.391971827E+01  9.391971827E+01  0.000000000E+00  0.00000E+00  9.000E+00
      -4    -1     0     0     0   511  0.000000000E+00  0.000000000E+00 -3.962822151E+00  3.962822151E+00  0.000000000E+00  0.00000E+00  9.000E+00
      23     2     1     2     0     0 -1.532622660E+00 -3.123281652E+00  8.581260809E+01  9.247153832E+01  3.427940885E+01  0.00000E+00  9.000E+00
      13     1     3     3     0     0 -1.082191310E+01  1.233201622E+01  4.227569156E+01  4.534796233E+01  1.056583668E-01  0.00000E+00  9.000E+00
     -13     1     3     3     0     0  9.289290438E+00 -1.545529787E+01  4.353691653E+01  4.712357599E+01  1.056583668E-01  0.00000E+00  9.000E+00
      21     1     1     2   501   511  1.532622660E+00  3.123281652E+00  4.144288025E+00  5.411002100E+00  0.000000000E+00  0.00000E+00  9.000E+00
#pdf   4 -4 0.13644075E-01 0.50960753E-03 0.34279409E+02 0.24680545E+00 0.12107529E+01
#rwgt            1           9   383.93205411342217         54217137    18443353           0
</event>
<event>
      6  10013  3.31628E+03  1.99910E+02 -1.00000E+00  1.11637E-01
      21    -1     0     0   511   501  0.000000000E+00  0.000000000E+00  4.520408798E+01  4.520408798E+01  0.000000000E+00  0.00000E+00  9.000E+00
       1    -1     0     0   501     0  0.000000000E+00  0.000000000E+00 -1.029124493E+03  1.029124493E+03  0.000000000E+00  0.00000E+00  9.000E+00
      23     2     1     2     0     0  1.640176067E+02 -1.142894466E+02 -6.375254372E+02  6.743869269E+02  9.162527538E+01  0.00000E+00  9.000E+00
      13     1     3     3     0     0  1.714698082E+01 -2.598395399E+01 -3.030366328E+01  4.344545993E+01  1.056583668E-01  0.00000E+00  9.000E+00
     -13     1     3     3     0     0  1.468706259E+02 -8.830549266E+01 -6.072217740E+02  6.309414669E+02  1.056583668E-01  0.00000E+00  9.000E+00
       1     1     1     2   511     0 -1.640176067E+02  1.142894466E+02 -3.463949674E+02  3.999416537E+02  0.000000000E+00  0.00000E+00  9.000E+00
#pdf  -1  1 0.11814245E-02 0.42047281E-01 0.91625275E+02 0.13649695E+01 0.46342662E+00
#rwgt            1           5   821.34143540437378         54217137    18443512           0
</event>
<event>
      6  10013  3.31628E+03  1.29812E+01 -1.00000E+00  1.83458E-01
      21    -1     0     0   511   501  0.000000000E+00  0.000000000E+00  1.021553858E+01  1.021553858E+01  0.000000000E+00  0.00000E+00  9.000E+00
       2    -1     0     0   501     0  0.000000000E+00  0.000000000E+00 -4.382665229E+02  4.382665229E+02  0.000000000E+00  0.00000E+00  9.000E+00
      23     2     1     2     0     0  1.294819664E+01  9.256023573E-01 -4.251968144E+02  4.351907552E+02  9.181584784E+01  0.00000E+00  9.000E+00
      13     1     3     3     0     0  2.267199148E+01  4.184285517E+01 -2.803936964E+02  2.844037269E+02  1.056583668E-01  0.00000E+00  9.000E+00
     -13     1     3     3     0     0 -9.723794839E+00 -4.091725282E+01 -1.448031180E+02  1.507870283E+02  1.056583668E-01  0.00000E+00  9.000E+00
       2     1     1     2   511     0 -1.294819664E+01 -9.256023573E-01 -2.854169911E+00  1.329130625E+01  0.000000000E+00  0.00000E+00  9.000E+00
#pdf  -2  2 0.76119446E-03 0.65531932E-01 0.91815848E+02 0.16142902E+01 0.62429895E+00
#rwgt            1           4   1291.5960009993064         54217137    18443628           0
</event>
<event>
      6  10013  3.31628E+03  3.43038E+00 -1.00000E+00  2.80127E-01
      21    -1     0     0   511   501  0.000000000E+00  0.000000000E+00  9.637673267E+00  9.637673267E+00  0.000000000E+00  0.00000E+00  9.000E+00
       2    -1     0     0   501     0  0.000000000E+00  0.000000000E+00 -6.443994872E+01  6.443994872E+01  0.000000000E+00  0.00000E+00  9.000E+00
      23     2     1     2     0     0  3.098345015E+00  1.472339761E+00 -5.862542940E+01  6.894108304E+01  3.611321686E+01  0.00000E+00  9.000E+00
      13     1     3     3     0     0  2.334317021E+00 -9.203163575E+00 -5.738598906E+01  5.816622869E+01  1.056583668E-01  0.00000E+00  9.000E+00
     -13     1     3     3     0     0  7.640279944E-01  1.067550334E+01 -1.239440345E+00  1.077485435E+01  1.056583668E-01  0.00000E+00  9.000E+00
       2     1     1     2   511     0 -3.098345015E+00 -1.472339761E+00  3.823153952E+00  5.136538946E+00  0.000000000E+00  0.00000E+00  9.000E+00
#pdf  -2  2 0.78995592E-03 0.97688353E-02 0.36113217E+02 0.13284799E+01 0.71394122E+00
#rwgt            1           4   868.61725862093465         54217137    18443706           0
</event>
<event>
      6  10013  3.31628E+03  1.28438E+01 -1.00000E+00  1.83927E-01
      -2    -1     0     0     0   501  0.000000000E+00  0.000000000E+00  1.334778052E+00  1.334778052E+00  0.000000000E+00  0.00000E+00  9.000E+00
      21    -1     0     0   501   511  0.000000000E+00  0.000000000E+00 -3.232295775E+02  3.232295775E+02  0.000000000E+00  0.00000E+00  9.000E+00
      23     2     1     2     0     0  1.188304743E+01 -4.873923312E+00 -2.697812855E+02  2.708914548E+02  2.086327646E+01  0.00000E+00  9.000E+00
      13     1     3     3     0     0  5.166265485E+00  3.818606767E+00 -2.106722275E+02  2.107701845E+02  1.056583668E-01  0.00000E+00  9.000E+00
     -13     1     3     3     0     0  6.716781948E+00 -8.692530079E+00 -5.910905803E+01  6.012127031E+01  1.056583668E-01  0.00000E+00  9.000E+00
      -2     1     1     2     0   511 -1.188304743E+01  4.873923312E+00 -5.211351396E+01  5.367290082E+01  0.000000000E+00  0.00000E+00  9.000E+00
#pdf  -2  2 0.72722118E-04 0.35417002E-01 0.20863276E+02 0.24636916E+01 0.62297606E+00
#rwgt            1           4   1596.7997128387074         54217137    18443775           0
</event>
<event>
      6  10013  3.31628E+03  2.90898E+01 -1.00000E+00  1.53940E-01
       2    -1     0     0   501     0  0.000000000E+00  0.000000000E+00  4.197103625E+01  4.197103625E+01  0.000000000E+00  0.00000E+00  9.000E+00
      21    -1     0     0   511   501  0.000000000E+00  0.000000000E+00 -1.102458063E+02  1.102458063E+02  0.000000000E+00  0.00000E+00  9.000E+00
      23     2     1     2     0     0  2.836577479E+01  6.449645901E+00 -9.200165232E+01  1.146777955E+02  6.197158743E+01  0.00000E+00  9.000E+00
      13     1     3     3     0     0 -3.425952200E+00  2.901130674E+01 -3.449705565E+01  4.520454712E+01  1.056583668E-01  0.00000E+00  9.000E+00
     -13     1     3     3     0     0  3.179172699E+01 -2.256166084E+01 -5.750459667E+01  6.947324842E+01  1.056583668E-01  0.00000E+00  9.000E+00
       2     1     1     2   511     0 -2.836577479E+01 -6.449645901E+00  2.372688224E+01  3.753904704E+01  0.000000000E+00  0.00000E+00  9.000E+00
#pdf   2 -2 0.15790112E-02 0.14391740E-01 0.61971587E+02 0.12282878E+01 0.41907803E+00
#rwgt            1           7   1010.7159028887949         54217137    18443898           0
</event>
<event>
      6  10013 -3.31628E+03  2.02008E+01 -1.00000E+00  1.65970E-01
       5    -1     0     0   501     0  0.000000000E+00  0.000000000E+00  3.799353546E+02  3.799353546E+02  0.000000000E+00  0.00000E+00  9.000E+00
      21    -1     0     0   511   501  0.000000000E+00  0.000000000E+00 -1.618104576E+01  1.618104576E+01  0.000000000E+00  0.00000E+00  9.000E+00
      23     2     1     2     0     0 -1.966114939E+01  4.638079209E+00  3.639947617E+02  3.759141631E+02  9.171258875E+01  0.00000E+00  9.000E+00
      13     1     3     3     0     0  2.650502295E+01  1.902355057E+01  2.495404864E+02  2.516642153E+02  1.056583668E-01  0.00000E+00  9.000E+00
     -13     1     3     3     0     0 -4.616617234E+01 -1.438547136E+01  1.144542752E+02  1.242499478E+02  1.056583668E-01  0.00000E+00  9.000E+00
       5     1     1     2   511     0  1.966114939E+01 -4.638079209E+00 -2.404527876E-01  2.020223729E+01  0.000000000E+00  0.00000E+00  9.000E+00
#pdf   5 -5 0.55583707E-01 0.89541361E-03 0.91712589E+02 0.42191243E-01 0.90107038E+00
#rwgt            1          10  -193.94865618362951         54217137    18443961           0
</event>
<event>
      6  10013  3.31628E+03  2.83564E+00 -1.00000E+00  3.04350E-01
      21    -1     0     0   511   501  0.000000000E+00  0.000000000E+00  2.672469601E+00  2.672469601E+00  0.000000000E+00  0.00000E+00  9.000E+00
       2    -1     0     0   501     0  0.000000000E+00  0.000000000E+00 -1.621038873E+03  1.621038873E+03  0.000000000E+00  0.00000E+00  9.000E+00
      23     2     1     2     0     0  2.200803812E+00  1.788099805E+00 -1.618397175E+03  1.620875538E+03  8.955475476E+01  0.00000E+00  9.000E+00
      13     1     3     3     0     0 -4.373742171E+00 -3.505615571E+01 -1.266704519E+03  1.267197070E+03  1.056583668E-01  0.00000E+00  9.000E+00
     -13     1     3     3     0     0  6.574545983E+00  3.684425551E+01 -3.516926556E+02  3.536784684E+02  1.056583668E-01  0.00000E+00  9.000E+00
       2     1     1     2   511     0 -2.200803812E+00 -1.788099805E+00  3.077164213E-02  2.835804159E+00  0.000000000E+00  0.00000E+00  9.000E+00
#pdf  -2  2 0.19054784E-03 0.24905001E+00 0.89554755E+02 0.26969307E+01 0.42043323E+00
#rwgt            1           4   1177.0469412403818         54217137    18444213           0
</event>
<event>
      6  10013  3.31628E+03  5.40972E+01 -1.00000E+00  1.37124E-01
      -1    -1     0     0     0   511  0.000000000E+00  0.000000000E+00  4.185955874E+01  4.185955874E+01  0.000000000E+00  0.00000E+00  9.000E+00
       1    -1     0     0   501     0  0.000000000E+00  0.000000000E+00 -2.126751001E+02  2.126751001E+02  0.000000000E+00  0.00000E+00  9.000E+00
      23     2     1     2     0     0 -4.837528059E+01  2.421450573E+01 -1.702656053E+02  2.004346358E+02  9.086889912E+01  0.00000E+00  9.000E+00
      13     1     3     3     0     0 -6.861212809E+00 -3.375629885E+01 -5.468054992E+01  6.462613757E+01  1.056583668E-01  0.00000E+00  9.000E+00
     -13     1     3     3     0     0 -4.151406778E+01  5.797080458E+01 -1.155850554E+02  1.358084983E+02  1.056583668E-01  0.00000E+00  9.000E+00
      21     1     1     2   501   511  4.837528059E+01 -2.421450573E+01 -5.499360340E-01  5.410002301E+01  1.517999802E-06  0.00000E+00  9.000E+00
#pdf  -1  1 0.19940735E-02 0.24502064E-01 0.90868899E+02 0.11041702E+01 0.52716420E+00
#rwgt            1           5   719.59881187265285         54217137    18444502           0
</event>
<event>
      6  10013  3.31628E+03  3.01454E+00 -1.00000E+00  2.96093E-01
      21    -1     0     0   511   501  0.000000000E+00  0.000000000E+00  1.994791856E+02  1.994791856E+02  0.000000000E+00  0.00000E+00  9.000E+00
       4    -1     0     0   501     0  0.000000000E+00  0.000000000E+00 -7.573052035E-01  7.573052035E-01  0.000000000E+00  0.00000E+00  9.000E+00
      23     2     1     2     0     0  1.706896171E+00  2.484750852E+00  1.594601422E+02  1.608591932E+02  2.095365365E+01  0.00000E+00  9.000E+00
      13     1     3     3     0     0 -8.468942241E-01 -6.764918396E-02 -4.093026298E-01  9.489460323E-01  1.056583668E-01  0.00000E+00  9.000E+00
     -13     1     3     3     0     0  2.553790395E+00  2.552400036E+00  1.598694448E+02  1.599102472E+02  1.056583668E-01  0.00000E+00  9.000E+00
       4     1     1     2   511     0 -1.706896171E+00 -2.484750852E+00  3.926173819E+01  3.937729761E+01  0.000000000E+00  0.00000E+00  9.000E+00
#pdf  -4  4 0.24388844E-01 0.10652256E-03 0.20953654E+02 0.14713852E+00 0.17347956E+01
#rwgt            1           2   379.92832403420056         54217137    18444550           0
</event>
<event>
      6  10013  3.31628E+03  9.63439E+00 -1.00000E+00  1.97586E-01
      -1    -1     0     0     0   501  0.000000000E+00  0.000000000E+00  3.256144072E+01  3.256144072E+01  0.000000000E+00  0.00000E+00  9.000E+00
      21    -1     0     0   501   511  0.000000000E+00  0.000000000E+00 -1.105049022E+02  1.105049022E+02  0.000000000E+00  0.00000E+00  9.000E+00
      23     2     1     2     0     0 -9.634392045E+00 -6.772268309E-03 -3.479703086E+01  9.885733895E+01  9.202781401E+01  0.00000E+00  9.000E+00
      13     1     3     3     0     0  3.688153463E+01 -1.004003932E+01  2.633363853E+00  3.831443273E+01  1.056583668E-01  0.00000E+00  9.000E+00
     -13     1     3     3     0     0 -4.651592667E+01  1.003326705E+01 -3.743039471E+01  6.054290622E+01  1.056583668E-01  0.00000E+00  9.000E+00
      -1     1     1     2     0   511  9.634392045E+00  6.772268309E-03 -4.314643058E+01  4.420900393E+01  0.000000000E+00  0.00000E+00  9.000E+00
#pdf  -1  1 0.49009321E-02 0.10225224E-01 0.92027814E+02 0.75374772E+00 0.67137412E+00
#rwgt            1           5   626.50963090908067         54217137    18444622           0
</event>
<event>
      6  10013  3.31628E+03  2.09001E+00 -1.00000E+00  3.54176E-01
      -2    -1     0     0     0   501  0.000000000E+00  0.000000000E+00  1.589895476E+00  1.589895476E+00  0.000000000E+00  0.00000E+00  9.000E+00
       2    -1     0     0   511     0  0.000000000E+00  0.000000000E+00 -1.485464203E+03  1.485464203E+03  0.000000000E+00  0.00000E+00  9.000E+00
      23     2     1     2     0     0 -1.364729279E+00  1.582924684E+00 -1.375750333E+03  1.378909926E+03  9.326970360E+01  0.00000E+00  9.000E+00
      13     1     3     3     0     0 -1.407559056E+01  3.419021069E+01 -1.137709330E+03  1.138309985E+03  1.056583668E-01  0.00000E+00  9.000E+00
     -13     1     3     3     0     0  1.271086128E+01 -3.260728600E+01 -2.380410032E+02  2.405999407E+02  1.056583668E-01  0.00000E+00  9.000E+00
      21     1     1     2   511   501  1.364729279E+00 -1.582924684E+00 -1.081239745E+02  1.081441722E+02  1.907348633E-06  0.00000E+00  9.000E+00
#pdf  -2  2 0.24298463E-03 0.21184376E+00 0.93269704E+02 0.24902959E+01 0.47329562E+00
#rwgt            1           4   1951.5216606930276         54217137    18444711           0
</event>
<event>
      6  10013  3.31628E+03  5.43252E+00 -1.00000E+00  2.32305E-01
      21    -1     0     0   511   501  0.000000000E+00  0.000000000E+00  5.671826096E-01  5.671826096E-01  0.000000000E+00  0.00000E+00  9.000E+00
       1    -1     0     0   501     0  0.000000000E+00  0.000000000E+00 -1.972825982E+03  1.972825982E+03  0.000000000E+00  0.00000E+00  9.000E+00
      23     2     1     2     0     0 -2.168059447E+00 -4.981145856E+00 -1.957288501E+03  1.957467646E+03  2.591907163E+01  0.00000E+00  9.000E+00
      13     1     3     3     0     0  9.184039591E+00 -4.362573737E-02 -3.185501894E+02  3.186825738E+02  1.056583668E-01  0.00000E+00  9.000E+00
     -13     1     3     3     0     0 -1.135209904E+01 -4.937520119E+00 -1.638738312E+03  1.638785073E+03  1.056583668E-01  0.00000E+00  9.000E+00
       1     1     1     2   511     0  2.168059447E+00  4.981145856E+00 -1.497029817E+01  1.592551798E+01  0.000000000E+00  0.00000E+00  9.000E+00
#pdf  -1  1 0.13487348E-04 0.29473086E+00 0.25919072E+02 0.44042124E+01 0.16011454E+00
#rwgt            1           5   1260.9218419501321         54217137    18445010           0
</event>
<event>
      6  10013  3.31628E+03  7.22821E+01 -1.00000E+00  1.30494E-01
      21    -1     0     0   511   501  0.000000000E+00  0.000000000E+00  1.829523146E+01  1.829523146E+01  0.000000000E+00  0.00000E+00  9.000E+00
       2    -1     0     0   501     0  0.000000000E+00  0.000000000E+00 -5.422772999E+02  5.422772999E+02  0.000000000E+00  0.00000E+00  9.000E+00
      23     2     1     2     0     0 -7.153091691E+01  1.039348870E+01 -4.109934178E+02  4.264415064E+02  8.781840484E+01  0.00000E+00  9.000E+00
      13     1     3     3     0     0 -6.348860902E+01  4.915365477E+00 -1.250254897E+02  1.403080487E+02  1.056583668E-01  0.00000E+00  9.000E+00
     -13     1     3     3     0     0 -8.042307895E+00  5.478123226E+00 -2.859679281E+02  2.861334577E+02  1.056583668E-01  0.00000E+00  9.000E+00
       2     1     1     2   511     0  7.153091691E+01 -1.039348870E+01 -1.129886507E+02  1.341310250E+02  0.000000000E+00  0.00000E+00  9.000E+00
#pdf  -2  2 0.91749569E-03 0.49737088E-01 0.87818405E+02 0.14895577E+01 0.63316811E+00
#rwgt            1           4   930.95768508892854         54217137    18445068           0
</event>
<event>
      6  10013  3.31628E+03  1.24382E+00 -1.00000E+00  5.19510E-01
      -2    -1     0     0     0   511  0.000000000E+00  0.000000000E+00  1.861370527E-01  1.861370527E-01  0.000000000E+00  0.00000E+00  9.000E+00
       2    -1     0     0   501     0  0.000000000E+00  0.000000000E+00 -1.298651262E+03  1.298651262E+03  0.000000000E+00  0.00000E+00  9.000E+00
      23     2     1     2     0     0  1.242661903E-01 -1.237600538E+00 -1.276863686E+03  1.277200180E+03  2.928957628E+01  0.00000E+00  9.000E+00
      13     1     3     3     0     0 -6.653543301E+00  2.632967062E-01 -6.989951983E+01  7.021604517E+01  1.056583668E-01  0.00000E+00  9.000E+00
     -13     1     3     3     0     0  6.777809491E+00 -1.500897244E+00 -1.206964166E+03  1.206984134E+03  1.056583668E-01  0.00000E+00  9.000E+00
      21     1     1     2   501   511 -1.242661903E-01  1.237600538E+00 -2.160143953E+01  2.163721994E+01  2.384185791E-07  0.00000E+00  9.000E+00
#pdf  -2  2 0.25860822E-04 0.19628954E+00 0.29289576E+02 0.37974358E+01 0.53785001E+00
#rwgt            1           4   3905.9942404233734         54217137    18445110           0
</event>
<event>
      6  10013  3.31628E+03  1.27191E+01 -1.00000E+00  1.84358E-01
       1    -1     0     0   501     0  0.000000000E+00  0.000000000E+00  1.730553558E+03  1.730553558E+03  0.000000000E+00  0.00000E+00  9.000E+00
      21    -1     0     0   511   501  0.000000000E+00  0.000000000E+00 -1.586754032E+00  1.586754032E+00  0.000000000E+00  0.00000E+00  9.000E+00
      23     2     1     2     0     0  1.076382297E+01 -6.776184188E+00  1.577163477E+03  1.579805068E+03  9.043031845E+01  0.00000E+00  9.000E+00
      13     1     3     3     0     0  2.012262087E+01 -8.595868557E+00  1.560139010E+03  1.560292457E+03  1.056583668E-01  0.00000E+00  9.000E+00
     -13     1     3     3     0     0 -9.358797893E+00  1.819684369E+00  1.702446675E+01  1.951261082E+01  1.056583668E-01  0.00000E+00  9.000E+00
       1     1     1     2   511     0 -1.076382297E+01  6.776184188E+00  1.518033265E+02  1.523352438E+02  0.000000000E+00  0.00000E+00  9.000E+00
#pdf   1 -1 0.24047673E+00 0.20121871E-03 0.90430318E+02 0.18672993E+00 0.26543878E+01
#rwgt            1           6   2110.3181623200690         54217137    18445431           0
</event>
<event>
      6  10013  3.31628E+03  4.78726E+00 -1.00000E+00  2.46250E-01
      21    -1     0     0   511   501  0.000000000E+00  0.000000000E+00  1.688824547E+02  1.688824547E+02  0.000000000E+00  0.00000E+00  9.000E+00
       1    -1     0     0   501     0  0.000000000E+00  0.000000000E+00 -1.439055141E+01  1.439055141E+01  0.000000000E+00  0.00000E+00  9.000E+00
      23     2     1     2     0     0 -7.037080748E-01  4.735256649E+00  1.439209027E+02  1.716685280E+02  9.345554765E+01  0.00000E+00  9.000E+00
      13     1     3     3     0     0 -4.578343528E+01  1.063311413E+01  8.632022153E+01  9.828722130E+01  1.056583668E-01  0.00000E+00  9.000E+00
     -13     1     3     3     0     0  4.507972720E+01 -5.897857485E+00  5.760068122E+01  7.338130667E+01  1.056583668E-01  0.00000E+00  9.000E+00
       1     1     1     2   511     0  7.037080748E-01 -4.735256649E+00  1.057100052E+01  1.160447813E+01  0.000000000E+00  0.00000E+00  9.000E+00
#pdf  -1  1 0.24244322E-01 0.21316378E-02 0.93455548E+02 0.34035847E+00 0.11441848E+01
#rwgt            1           5   467.12205699873232         54217137    18445479           0
</event>
<event>
      6  10013  3.31628E+03  1.46508E+01 -1.00000E+00  1.78305E-01
      -2    -1     0     0     0   501  0.000000000E+00  0.000000000E+00  5.150351035E+02  5.150351035E+02  0.000000000E+00  0.00000E+00  9.000E+00
       2    -1     0     0   511     0  0.000000000E+00  0.000000000E+00 -5.696779175E+00  5.696779175E+00  0.000000000E+00  0.00000E+00  9.000E+00
      23     2     1     2     0     0 -4.003626923E+00  1.409317976E+01  4.660364396E+02  4.750186465E+02  9.076400555E+01  0.00000E+00  9.000E+00
      13     1     3     3     0     0  5.181095877E+00 -3.201287980E+01  3.191242850E+02  3.207678111E+02  1.056583668E-01  0.00000E+00  9.000E+00
     -13     1     3     3     0     0 -9.184722800E+00  4.610605957E+01  1.469121546E+02  1.542508353E+02  1.056583668E-01  0.00000E+00  9.000E+00
      21     1     1     2   511   501  4.003626923E+00 -1.409317976E+01  4.330188470E+01  4.571323619E+01  8.259061849E-07  0.00000E+00  9.000E+00
#pdf  -2  2 0.71463832E-01 0.68210982E-03 0.90764006E+02 0.12829933E+00 0.17415268E+01
#rwgt            1           4   212.89973845608301         54217137    18445629           0
</event>
<event>
      6  10013  3.31628E+03  1.32483E+01 -1.00000E+00  1.82569E-01
       2    -1     0     0   511     0  0.000000000E+00  0.000000000E+00  1.380699292E+03  1.380699292E+03  0.000000000E+00  0.00000E+00  9.000E+00
      -2    -1     0     0     0   501  0.000000000E+00  0.000000000E+00 -9.875105049E-01  9.875105049E-01  0.000000000E+00  0.00000E+00  9.000E+00
      23     2     1     2     0     0  1.302493440E+01 -2.422255724E+00  2.526214594E+02  2.545186206E+02  2.804657236E+01  0.00000E+00  9.000E+00
      13     1     3     3     0     0 -8.456106830E-01  5.988522697E+00  1.288728279E+01  1.423624539E+01  1.056583668E-01  0.00000E+00  9.000E+00
     -13     1     3     3     0     0  1.387054508E+01 -8.410778421E+00  2.397341766E+02  2.402823752E+02  1.056583668E-01  0.00000E+00  9.000E+00
      21     1     1     2   511   501 -1.302493440E+01  2.422255724E+00  1.127090322E+03  1.127168182E+03  1.525878906E-05  0.00000E+00  9.000E+00
#pdf   2 -2 0.35273479E-01 0.13195462E-03 0.28046572E+02 0.62886710E+00 0.22612197E+01
#rwgt            1           7   1588.0204362376237         54217137    18445716           0
</event>
<event>
      6  10013  3.31628E+03  1.51010E+00 -1.00000E+00  4.31323E-01
      -1    -1     0     0     0   501  0.000000000E+00  0.000000000E+00  2.319278287E+00  2.319278287E+00  0.000000000E+00  0.00000E+00  9.000E+00
       1    -1     0     0   511     0  0.000000000E+00  0.000000000E+00 -1.405445596E+03  1.405445596E+03  0.000000000E+00  0.00000E+00  9.000E+00
      23     2     1     2     0     0  1.095253548E+00  1.039624022E+00 -8.833910134E+02  8.880273762E+02  9.061268054E+01  0.00000E+00  9.000E+00
      13     1     3     3     0     0 -2.165304938E+01  3.219684598E+01 -2.114934787E+02  2.150232409E+02  1.056583668E-01  0.00000E+00  9.000E+00
     -13     1     3     3     0     0  2.274830293E+01 -3.115722196E+01 -6.718975347E+02  6.730041353E+02  1.056583668E-01  0.00000E+00  9.000E+00
      21     1     1     2   511   501 -1.095253548E+00 -1.039624022E+00 -5.197353040E+02  5.197374978E+02  1.078959322E-05  0.00000E+00  9.000E+00
#pdf  -1  1 0.35659377E-03 0.13624403E+00 0.90612681E+02 0.21541895E+01 0.31110596E+00
#rwgt            1           5   1265.6851685365173         54217137    18445786           0
</event>
<event>
      6  10013  3.31628E+03  1.14433E+01 -1.00000E+00  1.89169E-01
      -4    -1     0     0     0   511  0.000000000E+00  0.000000000E+00  6.713437663E+00  6.713437663E+00  0.000000000E+00  0.00000E+00  9.000E+00
       4    -1     0     0   501     0  0.000000000E+00  0.000000000E+00 -5.201728012E+01  5.201728012E+01  0.000000000E+00  0.00000E+00  9.000E+00
      23     2     1     2     0     0  1.141946970E+01 -7.380235774E-01 -3.244620396E+01  4.151828522E+01  2.323925320E+01  0.00000E+00  9.000E+00
      13     1     3     3     0     0 -2.034915912E+00 -4.872665681E+00 -2.508287168E+01  2.563289623E+01  1.056583668E-01  0.00000E+00  9.000E+00
     -13     1     3     3     0     0  1.345438561E+01  4.134642104E+00 -7.363332281E+00  1.588538899E+01  1.056583668E-01  0.00000E+00  9.000E+00
      21     1     1     2   501   511 -1.141946970E+01  7.380235774E-01 -1.285763849E+01  1.721243256E+01  3.769728732E-07  0.00000E+00  9.000E+00
#pdf  -4  4 0.62606677E-03 0.51043093E-02 0.23239253E+02 0.98645944E+00 0.40544466E+00
#rwgt            1           2   419.05425131392695         54217137    18446015           0
</event>
<event>
      6  10013  3.31628E+03  4.13331E+00 -1.00000E+00  2.60055E-01
      21    -1     0     0   501   511  0.000000000E+00  0.000000000E+00  5.758795338E+01  5.758795338E+01  0.000000000E+00  0.00000E+00  9.000E+00
      -1    -1     0     0     0   501  0.000000000E+00  0.000000000E+00 -2.787386408E+00  2.787386408E+00  0.000000000E+00  0.00000E+00  9.000E+00
      23     2     1     2     0     0 -9.846802289E-01  4.014302831E+00  4.065574408E+01  4.563898213E+01  2.032099754E+01  0.00000E+00  9.000E+00
      13     1     3     3     0     0  2.688497050E+00  9.105131547E+00  8.090228724E+00  1.247374849E+01  1.056583668E-01  0.00000E+00  9.000E+00
     -13     1     3     3     0     0 -3.673177279E+00 -5.090828716E+00  3.256551536E+01  3.316523365E+01  1.056583668E-01  0.00000E+00  9.000E+00
      -1     1     1     2     0   511  9.846802289E-01 -4.014302831E+00  1.414482289E+01  1.473635766E+01  0.000000000E+00  0.00000E+00  9.000E+00
#pdf   1 -1 0.65048604E-02 0.37563440E-03 0.20320998E+02 0.65896035E+00 0.14775148E+01
#rwgt            1           6   162.63553282138176         54217137    18446050           0
</event>
<event>
      5  10013  3.31628E+03  8.94427E-01 -1.00000E+00  7.40350E-01
       1    -1     0     0   501     0  0.000000000E+00  0.000000000E+00  9.361688985E+02  9.361688985E+02  0.000000000E+00  0.00000E+00  9.000E+00
      -1    -1     0     0     0   501  0.000000000E+00  0.000000000E+00 -2.296396156E+00  2.296396156E+00  0.000000000E+00  0.00000E+00  9.000E+00
      23     2     1     2     0     0  0.000000000E+00  0.000000000E+00  9.338725024E+02  9.384652947E+02  9.273218772E+01  0.00000E+00  9.000E+00
      13     1     3     3     0     0  6.495473622E+00  4.862919759E+00  9.289265452E+02  9.289619888E+02  1.056583668E-01  0.00000E+00  9.000E+00
     -13     1     3     3     0     0 -6.495473622E+00 -4.862919759E+00  4.945957195E+00  9.503305868E+00  1.056583668E-01  0.00000E+00  9.000E+00
#pdf   1 -1 0.14402598E+00 0.35329172E-03 0.92732188E+02 0.30035015E+00 0.21714803E+01
#rwgt            1           6   2044.4153636528079         54217137    18446109           0
</event>
<event>
      6  10013  3.31628E+03  1.00173E+01 -1.00000E+00  1.95612E-01
      21    -1     0     0   501   511  0.000000000E+00  0.000000000E+00  9.180599911E+01  9.180599911E+01  0.000000000E+00  0.00000E+00  9.000E+00
      -1    -1     0     0     0   501  0.000000000E+00  0.000000000E+00 -2.845180088E+01  2.845180088E+01  0.000000000E+00  0.00000E+00  9.000E+00
      23     2     1     2     0     0 -3.393112085E+00 -9.425104761E+00  5.985592287E+01  1.096472515E+02  9.132054777E+01  0.00000E+00  9.000E+00
      13     1     3     3     0     0 -2.130507520E+01  2.250007054E+01 -8.478181431E+00  3.212553700E+01  1.056583668E-01  0.00000E+00  9.000E+00
     -13     1     3     3     0     0  1.791196311E+01 -3.192517530E+01  6.833410430E+01  7.752171448E+01  1.056583668E-01  0.00000E+00  9.000E+00
      -1     1     1     2     0   511  3.393112085E+00  9.425104761E+00  3.498275356E+00  1.061054852E+01  0.000000000E+00  0.00000E+00  9.000E+00
#pdf   1 -1 0.12960961E-01 0.38072649E-02 0.91320548E+02 0.62544885E+00 0.84137375E+00
#rwgt            1           6   493.92183450495315         54217137    18446342           0
</event>
<event>
      6  10013  3.31628E+03  4.18114E+00 -1.00000E+00  2.58914E-01
       1    -1     0     0   511     0  0.000000000E+00  0.000000000E+00  7.506018136E+02  7.506018136E+02  0.000000000E+00  0.00000E+00  9.000E+00
      -1    -1     0     0     0   501  0.000000000E+00  0.000000000E+00 -3.168782781E+00  3.168782781E+00  0.000000000E+00  0.00000E+00  9.000E+00
      23     2     1     2     0     0  1.565425416E+00  3.877032918E+00  7.067726405E+02  7.128957963E+02  9.314166134E+01  0.00000E+00  9.000E+00
      13     1     3     3     0     0  1.784656108E+01 -2.669580955E+01  5.953033754E+02  5.961688401E+02  1.056583668E-01  0.00000E+00  9.000E+00
     -13     1     3     3     0     0 -1.628113566E+01  3.057284247E+01  1.114692651E+02  1.167269562E+02  1.056583668E-01  0.00000E+00  9.000E+00
      21     1     1     2   511   501 -1.565425416E+00 -3.877032918E+00  4.066039029E+01  4.087480006E+01  4.768371582E-07  0.00000E+00  9.000E+00
#pdf   1 -1 0.10909540E+00 0.47053813E-03 0.93141661E+02 0.34790580E+00 0.19525162E+01
#rwgt            1           6   1188.3157432010444         54217137    18446482           0
</event>
<event>
      6  10013  3.31628E+03  4.90870E+00 -1.00000E+00  2.44048E-01
       1    -1     0     0   511     0  0.000000000E+00  0.000000000E+00  1.916830380E+03  1.916830380E+03  0.000000000E+00  0.00000E+00  9.000E+00
      -1    -1     0     0     0   501  0.000000000E+00  0.000000000E+00 -1.125251509E+00  1.125251509E+00  0.000000000E+00  0.00000E+00  9.000E+00
      23     2     1     2     0     0 -3.973850770E+00 -2.881647254E+00  1.705280587E+03  1.707473843E+03  8.637679543E+01  0.00000E+00  9.000E+00
      13     1     3     3     0     0 -2.362145900E+01  2.394504276E+01  3.140799619E+02  3.158758808E+02  1.056583668E-01  0.00000E+00  9.000E+00
     -13     1     3     3     0     0  1.964760823E+01 -2.682669002E+01  1.391200625E+03  1.391597963E+03  1.056583668E-01  0.00000E+00  9.000E+00
      21     1     1     2   511   501  3.973850770E+00  2.881647254E+00  2.104245421E+02  2.104817885E+02  0.000000000E+00  0.00000E+00  9.000E+00
#pdf   1 -1 0.26209669E+00 0.16844027E-03 0.86376795E+02 0.16607438E+00 0.28012113E+01
#rwgt            1           6   676.97282033666704         54217137    18446642           0
</event>
<event>
      6  10013  3.31628E+03  1.92695E+00 -1.00000E+00  3.70559E-01
      -2    -1     0     0     0   501  0.000000000E+00  0.000000000E+00  6.007014727E-01  6.007014727E-01  0.000000000E+00  0.00000E+00  9.000E+00
       2    -1     0     0   511     0  0.000000000E+00  0.000000000E+00 -2.828921917E+02  2.828921917E+02  0.000000000E+00  0.00000E+00  9.000E+00
      23     2     1     2     0     0  1.841842918E+00  5.663592145E-01 -2.549321486E+02  2.560657766E+02  2.399100703E+01  0.00000E+00  9.000E+00
      13     1     3     3     0     0  7.097627492E+00 -5.967517848E+00 -2.178463942E+02  2.180436887E+02  1.056583668E-01  0.00000E+00  9.000E+00
     -13     1     3     3     0     0 -5.255784574E+00  6.533877062E+00 -3.708575440E+01  3.802208785E+01  1.056583668E-01  0.00000E+00  9.000E+00
      21     1     1     2   511   501 -1.841842918E+00 -5.663592145E-01 -2.735934164E+01  2.742711657E+01  3.371747881E-07  0.00000E+00  9.000E+00
#pdf  -2  2 0.86922227E-04 0.39181351E-01 0.23991007E+02 0.24494333E+01 0.62573003E+00
#rwgt            1           4   1437.7981354302422         54217137    18446793           0
</event>
<event>
      6  10013  3.31628E+03  9.24125E+00 -1.00000E+00  1.99743E-01
      -1    -1     0     0     0   511  0.000000000E+00  0.000000000E+00  4.936357863E+02  4.936357863E+02  0.000000000E+00  0.00000E+00  9.000E+00
       1    -1     0     0   501     0  0.000000000E+00  0.000000000E+00 -7.506566281E+00  7.506566281E+00  0.000000000E+00  0.00000E+00  9.000E+00
      23     2     1     2     0     0  8.774212490E+00  2.900670622E+00  2.802730395E+02  2.950788484E+02  9.183218070E+01  0.00000E+00  9.000E+00
      13     1     3     3     0     0 -1.005526493E+01 -3.814106872E+01  7.331841602E+01  8.325533477E+01  1.056583668E-01  0.00000E+00  9.000E+00
     -13     1     3     3     0     0  1.882947742E+01  4.104173934E+01  2.069546235E+02  2.118235136E+02  1.056583668E-01  0.00000E+00  9.000E+00
      21     1     1     2   501   511 -8.774212490E+00 -2.900670622E+00  2.058561805E+02  2.060635041E+02  0.000000000E+00  0.00000E+00  9.000E+00
#pdf  -1  1 0.44035431E-01 0.11331851E-02 0.91832181E+02 0.23418720E+00 0.14357968E+01
#rwgt            1           5   516.03668195274179         54217137    18446976           0
</event>
<event>
      6  10013  3.31628E+03  1.83303E+01 -1.00000E+00  1.69511E-01
      21    -1     0     0   501   511  0.000000000E+00  0.000000000E+00  1.953009193E+01  1.953009193E+01  0.000000000E+00  0.00000E+00  9.000E+00
      -3    -1     0     0     0   501  0.000000000E+00  0.000000000E+00 -2.717668564E+02  2.717668564E+02  0.000000000E+00  0.00000E+00  9.000E+00
      23     2     1     2     0     0 -1.167064841E+01 -1.413497680E+01 -2.566979790E+02  2.724315292E+02  8.938167638E+01  0.00000E+00  9.000E+00
      13     1     3     3     0     0  2.663920023E+01 -1.334532339E+01 -2.916141505E+01  4.169105344E+01  1.056583668E-01  0.00000E+00  9.000E+00
     -13     1     3     3     0     0 -3.830984864E+01 -7.896534179E-01 -2.275365639E+02  2.307404757E+02  1.056583668E-01  0.00000E+00  9.000E+00
      -3     1     1     2     0   511  1.167064841E+01  1.413497680E+01  4.461214538E+00  1.886541912E+01  0.000000000E+00  0.00000E+00  9.000E+00
#pdf   3 -3 0.11855982E-02 0.39872436E-01 0.89381676E+02 0.13105444E+01 0.18668720E+00
#rwgt            1           8   408.91760733536518         54217137    18447058           0
</event>
<event>
      6  10013  3.31628E+03  1.50108E+01 -1.00000E+00  1.77307E-01
      21    -1     0     0   501   511  0.000000000E+00  0.000000000E+00  2.018349062E+01  2.018349062E+01  0.000000000E+00  0.00000E+00  9.000E+00
      -3    -1     0     0     0   501  0.000000000E+00  0.000000000E+00 -2.047233157E+02  2.047233157E+02  0.000000000E+00  0.00000E+00  9.000E+00
      23     2     1     2     0     0  8.395169603E+00 -1.244370291E+01 -1.880119900E+02  2.094996474E+02  9.119358131E+01  0.00000E+00  9.000E+00
      13     1     3     3     0     0  7.384143159E+00  2.260827239E+01 -1.668619966E+02  1.685484993E+02  1.056583668E-01  0.00000E+00  9.000E+00
     -13     1     3     3     0     0  1.011026445E+00 -3.505197530E+01 -2.114999341E+01  4.095114811E+01  1.056583668E-01  0.00000E+00  9.000E+00
      -3     1     1     2     0   511 -8.395169603E+00  1.244370291E+01  3.472164956E+00  1.540715886E+01  0.000000000E+00  0.00000E+00  9.000E+00
#pdf   3 -3 0.16309496E-02 0.30171806E-01 0.91193581E+02 0.11526388E+01 0.23665361E+00
#rwgt            1           8   323.75088922276825         54217137    18447167           0
</event>
<event>
      6  10013  3.31628E+03  8.43752E+01 -1.00000E+00  1.27216E-01
      21    -1     0     0   511   501  0.000000000E+00  0.000000000E+00  7.275883801E+01  7.275883801E+01  0.000000000E+00  0.00000E+00  9.000E+00
       2    -1     0     0   501     0  0.000000000E+00  0.000000000E+00 -1.682970116E+02  1.682970116E+02  0.000000000E+00  0.00000E+00  9.000E+00
      23     2     1     2     0     0  5.763046880E+01  6.162714625E+01 -9.455537803E+01  1.566749159E+02  9.212564063E+01  0.00000E+00  9.000E+00
      13     1     3     3     0     0  2.149142153E+01  6.449342373E+01 -1.553084956E+01  6.973163812E+01  1.056583668E-01  0.00000E+00  9.000E+00
     -13     1     3     3     0     0  3.613904727E+01 -2.866277475E+00 -7.902452847E+01  8.694327776E+01  1.056583668E-01  0.00000E+00  9.000E+00
       2     1     1     2   511     0 -5.763046880E+01 -6.162714625E+01 -9.827955570E-01  8.438093372E+01  0.000000000E+00  0.00000E+00  9.000E+00
#pdf  -2  2 0.35238326E-02 0.14251450E-01 0.92125641E+02 0.85840380E+00 0.71412625E+00
#rwgt            1           4   501.76126378745914         54217137    18447232           0
</event>
<event>
      6  10013  3.31628E+03  1.12392E+01 -1.00000E+00  1.90014E-01
       2    -1     0     0   501     0  0.000000000E+00  0.000000000E+00  7.952797317E+02  7.952797317E+02  0.000000000E+00  0.00000E+00  9.000E+00
      21    -1     0     0   511   501  0.000000000E+00  0.000000000E+00 -1.931015951E+00  1.931015951E+00  0.000000000E+00  0.00000E+00  9.000E+00
      23     2     1     2     0     0 -8.138774975E+00  7.751174650E+00  7.733109707E+02  7.742361618E+02  3.613110210E+01  0.00000E+00  9.000E+00
      13     1     3     3     0     0 -1.302985334E+01  7.278306398E+00  7.581807693E+02  7.583276606E+02  1.056583668E-01  0.00000E+00  9.000E+00
     -13     1     3     3     0     0  4.891078362E+00  4.728682515E-01  1.513020142E+01  1.590850120E+01  1.056583668E-01  0.00000E+00  9.000E+00
       2     1     1     2   511     0  8.138774975E+00 -7.751174650E+00  2.003774509E+01  2.297458585E+01  0.000000000E+00  0.00000E+00  9.000E+00
#pdf   2 -2 0.11366953E+00 0.67956601E-04 0.36131102E+02 0.60971201E+00 0.30191912E+01
#rwgt            1           7   1796.8293597095210         54217137    18447257           0
</event>
<event>
      6  10013  3.31628E+03  1.07542E+01 -1.00000E+00  1.92120E-01
      -2    -1     0     0     0   511  0.000000000E+00  0.000000000E+00  4.815628147E+02  4.815628147E+02  0.000000000E+00  0.00000E+00  9.000E+00
       2    -1     0     0   501     0  0.000000000E+00  0.000000000E+00 -7.608032690E+00  7.608032690E+00  0.000000000E+00  0.00000E+00  9.000E+00
      23     2     1     2     0     0 -9.923128403E+00 -4.145298014E+00  2.815368185E+02  2.964525954E+02  9.222531740E+01  0.00000E+00  9.000E+00
      13     1     3     3     0     0 -1.859278754E+01 -1.259233234E+01  2.833275311E+02  2.842160439E+02  1.056583668E-01  0.00000E+00  9.000E+00
     -13     1     3     3     0     0  8.669659135E+00  8.447034327E+00 -1.790712527E+00  1.223655154E+01  1.056583668E-01  0.00000E+00  9.000E+00
      21     1     1     2   501   511  9.923128403E+00  4.145298014E+00  1.924179635E+02  1.927182520E+02  2.697398305E-06  0.00000E+00  9.000E+00
#pdf  -2  2 0.44161499E-01 0.11396456E-02 0.92225317E+02 0.20171369E+00 0.14580132E+01
#rwgt            1           4   269.70463354160802         54217137    18447346           0
</event>
<event>
      6  10013  3.31628E+03  4.46266E+00 -1.00000E+00  2.52652E-01
       2    -1     0     0   501     0  0.000000000E+00  0.000000000E+00  1.693268033E+02  1.693268033E+02  0.000000000E+00  0.00000E+00  9.000E+00
      -2    -1     0     0     0   511  0.000000000E+00  0.000000000E+00 -1.473212976E+01  1.473212976E+01  0.000000000E+00  0.00000E+00  9.000E+00
      23     2     1     2     0     0 -3.532501709E+00 -2.727041084E+00  1.554580664E+02  1.795135212E+02  8.965477446E+01  0.00000E+00  9.000E+00
      13     1     3     3     0     0 -2.114986809E+01 -3.220042780E+01  2.830470015E+01  4.780535205E+01  1.056583668E-01  0.00000E+00  9.000E+00
     -13     1     3     3     0     0  1.761736638E+01  2.947338671E+01  1.271533662E+02  1.317081692E+02  1.056583668E-01  0.00000E+00  9.000E+00
      21     1     1     2   501   511  3.532501709E+00  2.727041084E+00 -8.633928396E-01  4.545411818E+00  5.866593029E-08  0.00000E+00  9.000E+00
#pdf   2 -2 0.25735184E-01 0.18481315E-02 0.89654774E+02 0.66111481E+00 0.11271577E+01
#rwgt            1           7   582.71851303723099         54217137    18447436           0
</event>
<event>
      6  10013  3.31628E+03  2.97238E+00 -1.00000E+00  2.97952E-01
      -4    -1     0     0     0   501  0.000000000E+00  0.000000000E+00  2.801631777E+01  2.801631777E+01  0.000000000E+00  0.00000E+00  9.000E+00
      21    -1     0     0   501   511  0.000000000E+00  0.000000000E+00 -1.406271167E+02  1.406271167E+02  0.000000000E+00  0.00000E+00  9.000E+00
      23     2     1     2     0     0 -2.058985432E+00 -2.143743034E+00 -4.769144100E+01  1.036560658E+02  9.198516931E+01  0.00000E+00  9.000E+00
      13     1     3     3     0     0  2.034256560E+01  7.585437988E+00 -6.832001048E+01  7.168677591E+01  1.056583668E-01  0.00000E+00  9.000E+00
     -13     1     3     3     0     0 -2.240155103E+01 -9.729181022E+00  2.062856948E+01  3.196928986E+01  1.056583668E-01  0.00000E+00  9.000E+00
      -4     1     1     2     0   511  2.058985432E+00  2.143743034E+00 -6.491935791E+01  6.498736867E+01  0.000000000E+00  0.00000E+00  9.000E+00
#pdf  -4  4 0.43027253E-02 0.11636042E-01 0.91985169E+02 0.58042829E+00 0.31576775E+00
#rwgt            1           2   228.26908590334460         54217137    18447547           0
</event>
<event>
      6  10013  3.31628E+03  1.56898E+01 -1.00000E+00  1.75517E-01
      -2    -1     0     0     0   501  0.000000000E+00  0.000000000E+00  2.531683118E+02  2.531683118E+02  0.000000000E+00  0.00000E+00  9.000E+00
      21    -1     0     0   501   511  0.000000000E+00  0.000000000E+00 -1.264530042E+01  1.264530042E+01  0.000000000E+00  0.00000E+00  9.000E+00
      23     2     1     2     0     0  3.218028741E+00  1.535629115E+01  2.236259412E+02  2.427553736E+02  9.314203380E+01  0.00000E+00  9.000E+00
      13     1     3     3     0     0 -2.850178587E+01  1.419181659E+01  2.016517640E+02  2.041499561E+02  1.056583668E-01  0.00000E+00  9.000E+00
     -13     1     3     3     0     0  3.171981461E+01  1.164474565E+00  2.197417716E+01  3.860541756E+01  1.056583668E-01  0.00000E+00  9.000E+00
      -2     1     1     2     0   511 -3.218028741E+00 -1.535629115E+01  1.689707021E+01  2.305823862E+01  0.000000000E+00  0.00000E+00  9.000E+00
#pdf  -2  2 0.35377073E-01 0.14510515E-02 0.93142034E+02 0.24037338E+00 0.13432356E+01
#rwgt            1           4   233.74499156986511         54217137    18447722           0
</event>
<event>
      6  10013  3.31628E+03  7.43765E+00 -1.00000E+00  2.11828E-01
      -1    -1     0     0     0   501  0.000000000E+00  0.000000000E+00  3.679866945E+00  3.679866945E+00  0.000000000E+00  0.00000E+00  9.000E+00
       1    -1     0     0   511     0  0.000000000E+00  0.000000000E+00 -6.412612687E+02  6.412612687E+02  0.000000000E+00  0.00000E+00  9.000E+00
      23     2     1     2     0     0 -4.599019852E+00 -5.845316111E+00 -5.853876300E+02  5.922200913E+02  8.939038265E+01  0.00000E+00  9.000E+00
      13     1     3     3     0     0  3.674538045E+01  1.697163339E+01 -3.331884880E+02  3.356379583E+02  1.056583668E-01  0.00000E+00  9.000E+00
     -13     1     3     3     0     0 -4.134440030E+01 -2.281694950E+01 -2.521991420E+02  2.565821331E+02  1.056583668E-01  0.00000E+00  9.000E+00
      21     1     1     2   511   501  4.599019852E+00  5.845316111E+00 -5.219377170E+01  5.272104426E+01  0.000000000E+00  0.00000E+00  9.000E+00
#pdf  -1  1 0.52376408E-03 0.90273270E-01 0.89390383E+02 0.18609227E+01 0.37572078E+00
#rwgt            1           5   828.45928467144654         54217137    18447786           0
</event>
<event>
      6  10013  3.31628E+03  6.50902E+00 -1.00000E+00  2.20042E-01
      21    -1     0     0   501   511  0.000000000E+00  0.000000000E+00  1.733941126E+02  1.733941126E+02  0.000000000E+00  0.00000E+00  9.000E+00
      -3    -1     0     0     0   501  0.000000000E+00  0.000000000E+00 -1.542009639E+01  1.542009639E+01  0.000000000E+00  0.00000E+00  9.000E+00
      23     2     1     2     0     0 -6.058710470E+00 -2.378949352E+00  1.284331753E+02  1.585647684E+02  9.276496048E+01  0.00000E+00  9.000E+00
      13     1     3     3     0     0 -3.202320700E-01 -4.711707889E+01  5.541661161E+01  7.274017925E+01  1.056583668E-01  0.00000E+00  9.000E+00
     -13     1     3     3     0     0 -5.738478400E+00  4.473812954E+01  7.301656366E+01  8.582458914E+01  1.056583668E-01  0.00000E+00  9.000E+00
      -3     1     1     2     0   511  6.058710470E+00  2.378949352E+00  2.954084094E+01  3.024944059E+01  0.000000000E+00  0.00000E+00  9.000E+00
#pdf   3 -3 0.22022619E-01 0.23121301E-02 0.92764960E+02 0.29976815E+00 0.99566433E+00
#rwgt            1           8   340.55257626059841         54217137    18447843           0
</event>
<event>
      6  10013  3.31628E+03  2.32550E+00 -1.00000E+00  3.34860E-01
       1    -1     0     0   501     0  0.000000000E+00  0.000000000E+00  3.096177192E+00  3.096177192E+00  0.000000000E+00  0.00000E+00  9.000E+00
      21    -1     0     0   511   501  0.000000000E+00  0.000000000E+00 -4.824161844E+01  4.824161844E+01  0.000000000E+00  0.00000E+00  9.000E+00
      23     2     1     2     0     0 -2.279788977E+00  4.588116984E-01 -4.026768355E+01  4.593405007E+01  2.197823176E+01  0.00000E+00  9.000E+00
      13     1     3     3     0     0  7.127955116E+00  4.675892352E+00 -6.772747260E+00  1.088820383E+01  1.056583668E-01  0.00000E+00  9.000E+00
     -13     1     3     3     0     0 -9.407744093E+00 -4.217080654E+00 -3.349493629E+01  3.504584624E+01  1.056583668E-01  0.00000E+00  9.000E+00
       1     1     1     2   511     0  2.279788977E+00 -4.588116984E-01 -4.877757702E+00  5.403745567E+00  0.000000000E+00  0.00000E+00  9.000E+00
#pdf   1 -1 0.43345471E-03 0.65940930E-02 0.21978232E+02 0.14684596E+01 0.56047557E+00
#rwgt            1           6   116.21717109436656         54217137    18447926           0
</event>
<event>
      6  10013  3.31628E+03  8.60804E+00 -1.00000E+00  2.03533E-01
       2    -1     0     0   501     0  0.000000000E+00  0.000000000E+00  1.720933003E+03  1.720933003E+03  0.000000000E+00  0.00000E+00  9.000E+00
      21    -1     0     0   511   501  0.000000000E+00  0.000000000E+00 -4.628338635E-01  4.628338635E-01  0.000000000E+00  0.00000E+00  9.000E+00
      23     2     1     2     0     0  7.587442183E+00  4.065597056E+00  1.667713583E+03  1.667941597E+03  2.620073217E+01  0.00000E+00  9.000E+00
      13     1     3     3     0     0 -2.444285772E+00 -5.539143348E+00  1.103047310E+02  1.104708173E+02  1.056583668E-01  0.00000E+00  9.000E+00
     -13     1     3     3     0     0  1.003172795E+01  9.604740404E+00  1.557408852E+03  1.557470780E+03  1.056583668E-01  0.00000E+00  9.000E+00
       2     1     1     2   511     0 -7.587442183E+00 -4.065597056E+00  5.275658638E+01  5.345423992E+01  0.000000000E+00  0.00000E+00  9.000E+00
#pdf   2 -2 0.24376969E+00 0.16663278E-04 0.26200732E+02 0.47972124E+00 0.41542695E+01
#rwgt            1           7   3895.5964738006592         54217137    18448005           0
</event>
<event>
      6  10013  3.31628E+03  9.32221E+01 -1.00000E+00  1.25191E-01
      21    -1     0     0   511   501  0.000000000E+00  0.000000000E+00  4.327783339E+01  4.327783339E+01  0.000000000E+00  0.00000E+00  9.000E+00
       1    -1     0     0   501     0  0.000000000E+00  0.000000000E+00 -2.890029896E+02  2.890029896E+02  0.000000000E+00  0.00000E+00  9.000E+00
      23     2     1     2     0     0  1.204084994E+01 -9.244125887E+01 -1.356257375E+02  1.880163076E+02  9.091437087E+01  0.00000E+00  9.000E+00
      13     1     3     3     0     0  6.863894819E+00  6.875625994E+00  8.499232222E+00  1.290873336E+01  1.056583668E-01  0.00000E+00  9.000E+00
     -13     1     3     3     0     0  5.176955121E+00 -9.931688486E+01 -1.441249698E+02  1.751075742E+02  1.056583668E-01  0.00000E+00  9.000E+00
       1     1     1     2   511     0 -1.204084994E+01  9.244125887E+01 -1.100994187E+02  1.442645154E+02  0.000000000E+00  0.00000E+00  9.000E+00
#pdf  -1  1 0.28137356E-02 0.17381814E-01 0.90914371E+02 0.95691535E+00 0.57611628E+00
#rwgt            1           5   544.14278085480078         54217137    18448048           0
</event>
<event>
      6  10013  3.31628E+03  4.01186E+00 -1.00000E+00  2.63060E-01
       2    -1     0     0   511     0  0.000000000E+00  0.000000000E+00  2.551432586E+03  2.551432586E+03  0.000000000E+00  0.00000E+00  9.000E+00
      -2    -1     0     0     0   501  0.000000000E+00  0.000000000E+00 -1.236310689E+00  1.236310689E+00  0.000000000E+00  0.00000E+00  9.000E+00
      23     2     1     2     0     0 -2.047240099E+00 -3.450188213E+00  1.732461306E+03  1.734924086E+03  9.232179170E+01  0.00000E+00  9.000E+00
      13     1     3     3     0     0  9.822854232E-01  4.412104841E+01  9.326671440E+02  9.337106856E+02  1.056583668E-01  0.00000E+00  9.000E+00
     -13     1     3     3     0     0 -3.029525523E+00 -4.757123662E+01  7.997941622E+02  8.012134008E+02  1.056583668E-01  0.00000E+00  9.000E+00
      21     1     1     2   511   501  2.047240099E+00  3.450188213E+00  8.177349693E+02  8.177448104E+02  0.000000000E+00  0.00000E+00  9.000E+00
#pdf   2 -2 0.26647048E+00 0.18926602E-03 0.92321792E+02 0.39331954E+00 0.27214441E+01
#rwgt            1           7   2311.4054554661398         54217137    18448161           0
</event>
<event>
      6  10013  3.31628E+03  9.12733E+00 -1.00000E+00  2.00395E-01
      -1    -1     0     0     0   501  0.000000000E+00  0.000000000E+00  1.708557861E+00  1.708557861E+00  0.000000000E+00  0.00000E+00  9.000E+00
       1    -1     0     0   511     0  0.000000000E+00  0.000000000E+00 -1.427866583E+03  1.427866583E+03  0.000000000E+00  0.00000E+00  9.000E+00
      23     2     1     2     0     0 -8.077597534E+00  4.249771333E+00 -1.102970506E+03  1.106258762E+03  8.474198399E+01  0.00000E+00  9.000E+00
      13     1     3     3     0     0  3.028478740E+01  1.023333187E+01 -8.216461366E+02  8.222677632E+02  1.056583668E-01  0.00000E+00  9.000E+00
     -13     1     3     3     0     0 -3.836238493E+01 -5.983560535E+00 -2.813243691E+02  2.839909988E+02  1.056583668E-01  0.00000E+00  9.000E+00
      21     1     1     2   511   501  8.077597534E+00 -4.249771333E+00 -3.231875196E+02  3.233163790E+02  5.394796609E-06  0.00000E+00  9.000E+00
#pdf  -1  1 0.25148826E-03 0.16896348E+00 0.84741984E+02 0.24150583E+01 0.27003370E+00
#rwgt            1           5   1250.3794268697759         54217137    18448266           0
</event>
<event>
      6  10013  3.31628E+03  2.01062E+00 -1.00000E+00  3.61788E-01
      -2    -1     0     0     0   511  0.000000000E+00  0.000000000E+00  4.073889435E+01  4.073889435E+01  0.000000000E+00  0.00000E+00  9.000E+00
       2    -1     0     0   501     0  0.000000000E+00  0.000000000E+00 -1.448718321E+01  1.448718321E+01  0.000000000E+00  0.00000E+00  9.000E+00
      23     2     1     2     0     0 -1.914116586E+00 -6.154235049E-01 -4.167281526E+00  2.474070889E+01  2.430419414E+01  0.00000E+00  9.000E+00
      13     1     3     3     0     0  7.047064970E+00 -3.360762868E+00 -1.075054392E+01  1.328688112E+01  1.056583668E-01  0.00000E+00  9.000E+00
     -13     1     3     3     0     0 -8.961181556E+00  2.745339363E+00  6.583262391E+00  1.145382777E+01  1.056583668E-01  0.00000E+00  9.000E+00
      21     1     1     2   501   511  1.914116586E+00  6.154235049E-01  3.041899267E+01  3.048536868E+01  0.000000000E+00  0.00000E+00  9.000E+00
#pdf  -2  2 0.15771836E-02 0.22161212E-02 0.24304194E+02 0.95417674E+00 0.94614496E+00
#rwgt            1           4   625.68353042675733         54217137    18448331           0
</event>
<event>
      6  10013  3.31628E+03  2.25639E+00 -1.00000E+00  3.40086E-01
      -2    -1     0     0     0   501  0.000000000E+00  0.000000000E+00  9.582829739E-01  9.582829739E-01  0.000000000E+00  0.00000E+00  9.000E+00
       2    -1     0     0   511     0  0.000000000E+00  0.000000000E+00 -3.876747775E+02  3.876747775E+02  0.000000000E+00  0.00000E+00  9.000E+00
      23     2     1     2     0     0  1.701426758E+00 -1.482042943E+00 -1.226976945E+02  1.246046186E+02  2.159850593E+01  0.00000E+00  9.000E+00
      13     1     3     3     0     0  4.094237244E-01 -1.154953728E+01 -6.361664264E+01  6.465792932E+01  1.056583668E-01  0.00000E+00  9.000E+00
     -13     1     3     3     0     0  1.292003034E+00  1.006749433E+01 -5.908105182E+01  5.994668933E+01  1.056583668E-01  0.00000E+00  9.000E+00
      21     1     1     2   511   501 -1.701426758E+00  1.482042943E+00 -2.640188000E+02  2.640284418E+02  3.814697266E-06  0.00000E+00  9.000E+00
#pdf  -2  2 0.14589251E-03 0.18920288E-01 0.21598506E+02 0.20171490E+01 0.63496453E+00
#rwgt            1           4   1336.8598384053896         54217137    18448570           0
</event>
<event>
      6  10013  3.31628E+03  2.09349E+01 -1.00000E+00  1.64708E-01
      -3    -1     0     0     0   511  0.000000000E+00  0.000000000E+00  9.466460773E+00  9.466460773E+00  0.000000000E+00  0.00000E+00  9.000E+00
       3    -1     0     0   501     0  0.000000000E+00  0.000000000E+00 -4.251209030E+02  4.251209030E+02  0.000000000E+00  0.00000E+00  9.000E+00
      23     2     1     2     0     0 -2.000608248E+01  6.166482933E+00 -3.870365384E+02  3.991295964E+02  9.523068732E+01  0.00000E+00  9.000E+00
      13     1     3     3     0     0 -2.197093511E+01 -1.344391414E+01 -3.753163946E+02  3.761992398E+02  1.056583668E-01  0.00000E+00  9.000E+00
     -13     1     3     3     0     0  1.964852638E+00  1.961039708E+01 -1.172014386E+01  2.293035663E+01  1.056583668E-01  0.00000E+00  9.000E+00
      21     1     1     2   501   511  2.000608248E+01 -6.166482933E+00 -2.861790377E+01  3.545776733E+01  5.840038640E-07  0.00000E+00  9.000E+00
#pdf  -3  3 0.90854087E-03 0.59063974E-01 0.95230687E+02 0.14746530E+01 0.12584356E+00
#rwgt            1           3   373.24462434100246         54217137    18448721           0
</event>
<event>
      6  10013  3.31628E+03  1.11228E+01 -1.00000E+00  1.90507E-01
      21    -1     0     0   511   501  0.000000000E+00  0.000000000E+00  3.742418526E+00  3.742418526E+00  0.000000000E+00  0.00000E+00  9.000E+00
       2    -1     0     0   501     0  0.000000000E+00  0.000000000E+00 -7.061633749E+02  7.061633749E+02  0.000000000E+00  0.00000E+00  9.000E+00
      23     2     1     2     0     0 -1.683463765E+00 -1.099463507E+01 -5.882297838E+02  5.951741938E+02  8.996847453E+01  0.00000E+00  9.000E+00
      13     1     3     3     0     0  2.679697351E+01 -3.372039163E+01 -4.555708811E+02  4.576024273E+02  1.056583668E-01  0.00000E+00  9.000E+00
     -13     1     3     3     0     0 -2.848043728E+01  2.272575655E+01 -1.326589027E+02  1.375717665E+02  1.056583668E-01  0.00000E+00  9.000E+00
       2     1     1     2   511     0  1.683463765E+00  1.099463507E+01 -1.141911726E+02  1.147315996E+02  0.000000000E+00  0.00000E+00  9.000E+00
#pdf  -2  2 0.53014927E-03 0.90343277E-01 0.89968475E+02 0.18484321E+01 0.60951543E+00
#rwgt            1           4   1306.8556766816955         54217137    18448804           0
</event>
<event>
      6  10013  3.31628E+03  1.40700E+01 -1.00000E+00  1.79994E-01
       1    -1     0     0   501     0  0.000000000E+00  0.000000000E+00  2.820789967E+02  2.820789967E+02  0.000000000E+00  0.00000E+00  9.000E+00
      21    -1     0     0   511   501  0.000000000E+00  0.000000000E+00 -4.164187861E+01  4.164187861E+01  0.000000000E+00  0.00000E+00  9.000E+00
      23     2     1     2     0     0  1.203025193E+01  7.296481272E+00  2.731860090E+02  2.880774262E+02  9.033295273E+01  0.00000E+00  9.000E+00
      13     1     3     3     0     0 -7.356451853E+00  4.283014844E+01  1.977346792E+02  2.024538306E+02  1.056583668E-01  0.00000E+00  9.000E+00
     -13     1     3     3     0     0  1.938670378E+01 -3.553366717E+01  7.545132982E+01  8.562359558E+01  1.056583668E-01  0.00000E+00  9.000E+00
       1     1     1     2   511     0 -1.203025193E+01 -7.296481272E+00 -3.274889099E+01  3.564344907E+01  0.000000000E+00  0.00000E+00  9.000E+00
#pdf   1 -1 0.42659741E-01 0.11318464E-02 0.90332953E+02 0.46183325E+00 0.13852134E+01
#rwgt            1           6   825.89267227997823         54217137    18448903           0
</event>
<event>
      6  10013  3.31628E+03  5.80828E+00 -1.00000E+00  2.27605E-01
       4    -1     0     0   501     0  0.000000000E+00  0.000000000E+00  9.019342280E+01  9.019342280E+01  0.000000000E+00  0.00000E+00  9.000E+00
      21    -1     0     0   511   501  0.000000000E+00  0.000000000E+00 -3.496712872E+00  3.496712872E+00  0.000000000E+00  0.00000E+00  9.000E+00
      23     2     1     2     0     0  5.201341935E+00 -2.584996922E+00  3.538398316E+01  4.204972422E+01  2.196399042E+01  0.00000E+00  9.000E+00
      13     1     3     3     0     0 -4.701180700E+00  7.193636287E+00  1.634022546E+01  1.846249265E+01  1.056583668E-01  0.00000E+00  9.000E+00
     -13     1     3     3     0     0  9.902522635E+00 -9.778633209E+00  1.904375770E+01  2.358723157E+01  1.056583668E-01  0.00000E+00  9.000E+00
       4     1     1     2   511     0 -5.201341935E+00  2.584996922E+00  5.131272677E+01  5.164041146E+01  0.000000000E+00  0.00000E+00  9.000E+00
#pdf   4 -4 0.57584911E-02 0.49570932E-03 0.21963990E+02 0.37579962E+00 0.10520900E+01
#rwgt            1           9   397.44448372810604         54217137    18448977           0
</event>
<event>
      6  10013  3.31628E+03  6.19921E+00 -1.00000E+00  2.23214E-01
       4    -1     0     0   501     0  0.000000000E+00  0.000000000E+00  4.416410347E+00  4.416410347E+00  0.000000000E+00  0.00000E+00  9.000E+00
      21    -1     0     0   511   501  0.000000000E+00  0.000000000E+00 -6.286313245E+02  6.286313245E+02  0.000000000E+00  0.00000E+00  9.000E+00
      23     2     1     2     0     0 -4.084689364E+00 -4.663208716E+00 -4.772891494E+02  4.859912473E+02  9.134620980E+01  0.00000E+00  9.000E+00
      13     1     3     3     0     0  1.792787821E+00 -5.765853616E+00  2.227889463E+00  6.436910070E+00  1.056583668E-01  0.00000E+00  9.000E+00
     -13     1     3     3     0     0 -5.877477185E+00  1.102644900E+00 -4.795170389E+02  4.795543372E+02  1.056583668E-01  0.00000E+00  9.000E+00
       4     1     1     2   511     0  4.084689364E+00  4.663208716E+00 -1.469257647E+02  1.470564876E+02  0.000000000E+00  0.00000E+00  9.000E+00
#pdf   4 -4 0.66785595E-03 0.73928443E-01 0.91346210E+02 0.14022000E+01 0.51139167E-01
#rwgt            1           9   81.288291749406852         54217137    18449045           0
</event>
<event>
      6  10013  3.31628E+03  5.74791E+00 -1.00000E+00  2.28326E-01
      21    -1     0     0   511   501  0.000000000E+00  0.000000000E+00  2.190209701E+00  2.190209701E+00  0.000000000E+00  0.00000E+00  9.000E+00
       2    -1     0     0   501     0  0.000000000E+00  0.000000000E+00 -1.117443582E+03  1.117443582E+03  0.000000000E+00  0.00000E+00  9.000E+00
      23     2     1     2     0     0  1.549963910E+00 -5.534985410E+00 -1.090922061E+03  1.094632769E+03  8.987166556E+01  0.00000E+00  9.000E+00
      13     1     3     3     0     0 -2.998712443E+01 -3.216192030E+01 -3.845747956E+02  3.870806134E+02  1.056583668E-01  0.00000E+00  9.000E+00
     -13     1     3     3     0     0  3.153708834E+01  2.662693489E+01 -7.063472654E+02  7.075521551E+02  1.056583668E-01  0.00000E+00  9.000E+00
       2     1     1     2   511     0 -1.549963910E+00  5.534985410E+00 -2.433131177E+01  2.500102366E+01  0.000000000E+00  0.00000E+00  9.000E+00
#pdf  -2  2 0.28485703E-03 0.16777681E+00 0.89871666E+02 0.23311378E+01 0.53359292E+00
#rwgt            1           4   1997.2311283198833         54217137    18449259           0
</event>
<event>
      6  10013  3.31628E+03  1.65792E+00 -1.00000E+00  4.05651E-01
      21    -1     0     0   511   501  0.000000000E+00  0.000000000E+00  4.532559099E+00  4.532559099E+00  0.000000000E+00  0.00000E+00  9.000E+00
       2    -1     0     0   501     0  0.000000000E+00  0.000000000E+00 -1.141011116E+03  1.141011116E+03  0.000000000E+00  0.00000E+00  9.000E+00
      23     2     1     2     0     0  2.284884451E-01 -1.642098397E+00 -1.138924925E+03  1.142588441E+03  9.140903770E+01  0.00000E+00  9.000E+00
      13     1     3     3     0     0 -8.698377968E-01 -4.601254915E+01 -6.645890934E+02  6.661805953E+02  1.056583668E-01  0.00000E+00  9.000E+00
     -13     1     3     3     0     0  1.098326242E+00  4.437045076E+01 -4.743358313E+02  4.764078455E+02  1.056583668E-01  0.00000E+00  9.000E+00
       2     1     1     2   511     0 -2.284884451E-01  1.642098397E+00  2.446367840E+00  2.955234293E+00  0.000000000E+00  0.00000E+00  9.000E+00
#pdf  -2  2 0.28176259E-03 0.17547217E+00 0.91409038E+02 0.23486832E+01 0.52336864E+00
#rwgt            1           4   1808.7016953797297         54217137    18449387           0
</event>
<event>
      6  10013  3.31628E+03  2.37133E+01 -1.00000E+00  1.60450E-01
       2    -1     0     0   501     0  0.000000000E+00  0.000000000E+00  1.780678421E+03  1.780678421E+03  0.000000000E+00  0.00000E+00  9.000E+00
      21    -1     0     0   511   501  0.000000000E+00  0.000000000E+00 -2.318220645E+00  2.318220645E+00  0.000000000E+00  0.00000E+00  9.000E+00
      23     2     1     2     0     0 -6.316980393E+00  2.285643017E+01  1.586698716E+03  1.589873765E+03  9.758818968E+01  0.00000E+00  9.000E+00
      13     1     3     3     0     0 -2.211208691E+01  1.926239785E+00  1.473909899E+03  1.474077019E+03  1.056583668E-01  0.00000E+00  9.000E+00
     -13     1     3     3     0     0  1.579510651E+01  2.093019039E+01  1.127888164E+02  1.157967467E+02  1.056583668E-01  0.00000E+00  9.000E+00
       2     1     1     2   511     0  6.316980393E+00 -2.285643017E+01  1.916614851E+02  1.931228767E+02  0.000000000E+00  0.00000E+00  9.000E+00
#pdf   2 -2 0.23744227E+00 0.23732844E-03 0.97588190E+02 0.43452070E+00 0.25355639E+01
#rwgt            1           7   2438.9130292325558         54217137    18449781           0
</event>
<event>
      6  10013  3.31628E+03  6.05085E+00 -1.00000E+00  2.24826E-01
      -4    -1     0     0     0   501  0.000000000E+00  0.000000000E+00  8.865443760E+01  8.865443760E+01  0.000000000E+00  0.00000E+00  9.000E+00
      21    -1     0     0   501   511  0.000000000E+00  0.000000000E+00 -4.872138094E+00  4.872138094E+00  0.000000000E+00  0.00000E+00  9.000E+00
      23     2     1     2     0     0 -4.948339405E+00  3.482342128E+00  8.017204080E+01  8.648053159E+01  3.185456716E+01  0.00000E+00  9.000E+00
      13     1     3     3     0     0 -1.589684941E+01  8.037277676E+00  2.968629122E+01  3.462072650E+01  1.056583668E-01  0.00000E+00  9.000E+00
     -13     1     3     3     0     0  1.094851001E+01 -4.554935548E+00  5.048574959E+01  5.185980509E+01  1.056583668E-01  0.00000E+00  9.000E+00
      -4     1     1     2     0   511  4.948339405E+00 -3.482342128E+00  3.610258708E+00  7.046044103E+00  0.000000000E+00  0.00000E+00  9.000E+00
#pdf  -4  4 0.12594230E-01 0.47674383E-03 0.31854567E+02 0.25726671E+00 0.12129890E+01
#rwgt            1           2   297.09155043944821         54217137    18449829           0
</event>
<event>
      6  10013  3.31628E+03  2.69769E+01 -1.00000E+00  1.56278E-01
       2    -1     0     0   511     0  0.000000000E+00  0.000000000E+00  1.062914329E+02  1.062914329E+02  0.000000000E+00  0.00000E+00  9.000E+00
      -2    -1     0     0     0   501  0.000000000E+00  0.000000000E+00 -2.897384553E+01  2.897384553E+01  0.000000000E+00  0.00000E+00  9.000E+00
      23     2     1     2     0     0 -1.340478032E+01  2.341077318E+01  5.349843275E+01  9.927771720E+01  7.915952495E+01  0.00000E+00  9.000E+00
      13     1     3     3     0     0  3.973348453E+00  4.874670509E+01  4.708967583E+01  6.789313285E+01  1.056583668E-01  0.00000E+00  9.000E+00
     -13     1     3     3     0     0 -1.737812877E+01 -2.533593191E+01  6.408756911E+00  3.138458434E+01  1.056583668E-01  0.00000E+00  9.000E+00
      21     1     1     2   511   501  1.340478032E+01 -2.341077318E+01  2.381915461E+01  3.598756122E+01  0.000000000E+00  0.00000E+00  9.000E+00
#pdf   2 -2 0.11123798E-01 0.33332397E-02 0.79159525E+02 0.74002875E+00 0.86382210E+00
#rwgt            1           7   389.15407423374410         54217137    18449918           0
</event>
<event>
      6  10013  3.31628E+03  3.87316E+00 -1.00000E+00  2.66701E-01
       2    -1     0     0   511     0  0.000000000E+00  0.000000000E+00  1.454775238E+02  1.454775238E+02  0.000000000E+00  0.00000E+00  9.000E+00
      -2    -1     0     0     0   501  0.000000000E+00  0.000000000E+00 -1.648958358E+01  1.648958358E+01  0.000000000E+00  0.00000E+00  9.000E+00
      23     2     1     2     0     0 -2.707793580E+00 -2.769341488E+00  1.102450733E+02  1.428282344E+02  9.072445622E+01  0.00000E+00  9.000E+00
      13     1     3     3     0     0 -1.896462752E+01 -3.968573160E+01  3.069597064E+01  5.363644438E+01  1.056583668E-01  0.00000E+00  9.000E+00
     -13     1     3     3     0     0  1.625683394E+01  3.691639011E+01  7.954910264E+01  8.919179000E+01  1.056583668E-01  0.00000E+00  9.000E+00
      21     1     1     2   511   501  2.707793580E+00  2.769341488E+00  1.874286697E+01  1.913887302E+01  3.371747881E-07  0.00000E+00  9.000E+00
#pdf   2 -2 0.19449462E-01 0.25041161E-02 0.90724456E+02 0.68192654E+00 0.99376054E+00
#rwgt            1           7   681.08763196096800         54217137    18449958           0
</event>
<event>
      6  10013  3.31628E+03  2.16086E+00 -1.00000E+00  3.47892E-01
       4    -1     0     0   501     0  0.000000000E+00  0.000000000E+00  2.889065741E+01  2.889065741E+01  0.000000000E+00  0.00000E+00  9.000E+00
      21    -1     0     0   511   501  0.000000000E+00  0.000000000E+00 -9.186369213E+00  9.186369213E+00  0.000000000E+00  0.00000E+00  9.000E+00
      23     2     1     2     0     0  1.244110382E+00 -1.766778588E+00  2.231687568E+01  3.468660915E+01  2.646598945E+01  0.00000E+00  9.000E+00
      13     1     3     3     0     0  4.073522068E-01 -3.688669790E+00 -5.584738725E+00  6.706168128E+00  1.056583668E-01  0.00000E+00  9.000E+00
     -13     1     3     3     0     0  8.367581757E-01  1.921891202E+00  2.790161440E+01  2.798044103E+01  1.056583668E-01  0.00000E+00  9.000E+00
       4     1     1     2   511     0 -1.244110382E+00  1.766778588E+00 -2.612587484E+00  3.390417465E+00  0.000000000E+00  0.00000E+00  9.000E+00
#pdf   4 -4 0.43703409E-02 0.94836223E-03 0.26465989E+02 0.45248298E+00 0.87995052E+00
#rwgt            1           9   778.21662077641622         54217137    18450103           0
</event>
<event>
      6  10013  3.31628E+03  1.24782E+00 -1.00000E+00  5.17990E-01
      -2    -1     0     0     0   511  0.000000000E+00  0.000000000E+00  8.414772247E+00  8.414772247E+00  0.000000000E+00  0.00000E+00  9.000E+00
       2    -1     0     0   501     0  0.000000000E+00  0.000000000E+00 -3.547085432E+02  3.547085432E+02  0.000000000E+00  0.00000E+00  9.000E+00
      23     2     1     2     0     0 -1.034223451E+00 -6.981750205E-01 -3.490037602E+02  3.601398430E+02  8.885676578E+01  0.00000E+00  9.000E+00
      13     1     3     3     0     0  3.081503077E+01 -1.390319403E+01 -2.887226817E+02  2.906951376E+02  1.056583668E-01  0.00000E+00  9.000E+00
     -13     1     3     3     0     0 -3.184925422E+01  1.320501901E+01 -6.028107845E+01  6.944470537E+01  1.056583668E-01  0.00000E+00  9.000E+00
      21     1     1     2   501   511  1.034223451E+00  6.981750205E-01  2.709989206E+00  2.983472474E+00  2.811545471E-07  0.00000E+00  9.000E+00
#pdf  -2  2 0.85653730E-03 0.54544130E-01 0.88856766E+02 0.15331750E+01 0.63040487E+00
#rwgt            1           4   1109.7920147886705         54217137    18450318           0
</event>
<event>
      6  10013  3.31628E+03  1.03595E+01 -1.00000E+00  1.93943E-01
      -1    -1     0     0     0   501  0.000000000E+00  0.000000000E+00  3.876648606E+00  3.876648606E+00  0.000000000E+00  0.00000E+00  9.000E+00
      21    -1     0     0   501   511  0.000000000E+00  0.000000000E+00 -8.778341461E+01  8.778341461E+01  0.000000000E+00  0.00000E+00  9.000E+00
      23     2     1     2     0     0 -1.034111884E+01 -6.168761465E-01 -6.197067073E+01  6.740080620E+01  2.439642127E+01  0.00000E+00  9.000E+00
      13     1     3     3     0     0 -1.318446456E+01 -8.941829899E+00 -2.708455325E+01  3.142245401E+01  1.056583668E-01  0.00000E+00  9.000E+00
     -13     1     3     3     0     0  2.843345720E+00  8.324953752E+00 -3.488611748E+01  3.597835219E+01  1.056583668E-01  0.00000E+00  9.000E+00
      -1     1     1     2     0   511  1.034111884E+01  6.168761465E-01 -2.193609528E+01  2.425925702E+01  0.000000000E+00  0.00000E+00  9.000E+00
#pdf  -1  1 0.38447565E-03 0.91600260E-02 0.24396421E+02 0.15450207E+01 0.61934446E+00
#rwgt            1           5   279.97536483338178         54217137    18450883           0
</event>
<event>
      6  10013  3.31628E+03  2.45664E+00 -1.00000E+00  3.25783E-01
       2    -1     0     0   511     0  0.000000000E+00  0.000000000E+00  2.110502738E+01  2.110502738E+01  0.000000000E+00  0.00000E+00  9.000E+00
      -2    -1     0     0     0   501  0.000000000E+00  0.000000000E+00 -2.708316891E+01  2.708316891E+01  0.000000000E+00  0.00000E+00  9.000E+00
      23     2     1     2     0     0 -2.456086429E+00  5.234965602E-02 -2.286333400E+01  3.112522979E+01  2.097648175E+01  0.00000E+00  9.000E+00
      13     1     3     3     0     0 -6.047769512E+00 -1.283513931E-01 -2.578830127E+01  2.648848120E+01  1.056583668E-01  0.00000E+00  9.000E+00
     -13     1     3     3     0     0  3.591683083E+00  1.807010492E-01  2.924967269E+00  4.636748586E+00  1.056583668E-01  0.00000E+00  9.000E+00
      21     1     1     2   511   501  2.456086429E+00 -5.234965602E-02  1.688519247E+01  1.706296650E+01  2.384185791E-07  0.00000E+00  9.000E+00
#pdf   2 -2 0.63121639E-03 0.41247756E-02 0.20976482E+02 0.13063056E+01 0.65194752E+00
#rwgt            1           7   706.47239626586031         54217137    18451006           0
</event>
<event>
      6  10013  3.31628E+03  1.10196E+00 -1.00000E+00  5.84796E-01
      -2    -1     0     0     0   511  0.000000000E+00  0.000000000E+00  6.923729512E-02  6.923729512E-02  0.000000000E+00  0.00000E+00  9.000E+00
       2    -1     0     0   501     0  0.000000000E+00  0.000000000E+00 -2.561396350E+03  2.561396350E+03  0.000000000E+00  0.00000E+00  9.000E+00
      23     2     1     2     0     0 -1.015949286E+00 -4.268013681E-01 -2.545393321E+03  2.545493736E+03  2.258290599E+01  0.00000E+00  9.000E+00
      13     1     3     3     0     0 -9.257308026E+00  5.085201149E+00 -7.664016841E+02  7.664744677E+02  1.056583668E-01  0.00000E+00  9.000E+00
     -13     1     3     3     0     0  8.241358740E+00 -5.512002518E+00 -1.778991637E+03  1.779019269E+03  1.056583668E-01  0.00000E+00  9.000E+00
      21     1     1     2   501   511  1.015949286E+00  4.268013681E-01 -1.593379162E+01  1.597185111E+01  8.259061849E-07  0.00000E+00  9.000E+00
#pdf  -2  2 0.77150592E-05 0.39114131E+00 0.22582906E+02 0.48908717E+01 0.27027887E+00
#rwgt            1           4   9576.1406806226587         54217137    18451094           0
</event>
<event>
      6  10013  3.31628E+03  3.00610E+00 -1.00000E+00  2.96461E-01
      -3    -1     0     0     0   501  0.000000000E+00  0.000000000E+00  2.323958500E+00  2.323958500E+00  0.000000000E+00  0.00000E+00  9.000E+00
       3    -1     0     0   511     0  0.000000000E+00  0.000000000E+00 -9.570825749E+02  9.570825749E+02  0.000000000E+00  0.00000E+00  9.000E+00
      23     2     1     2     0     0  1.058699575E+00 -2.813504992E+00 -8.752893194E+02  8.798804004E+02  8.971671973E+01  0.00000E+00  9.000E+00
      13     1     3     3     0     0 -2.568662271E+01 -2.217854965E+01 -7.339905094E+02  7.347746387E+02  1.056583668E-01  0.00000E+00  9.000E+00
     -13     1     3     3     0     0  2.674532228E+01  1.936504465E+01 -1.412988100E+02  1.451057617E+02  1.056583668E-01  0.00000E+00  9.000E+00
      21     1     1     2   511   501 -1.058699575E+00  2.813504992E+00 -7.946929705E+01  7.952613299E+01  9.536743164E-07  0.00000E+00  9.000E+00
#pdf  -3  3 0.35296200E-03 0.13493733E+00 0.89716720E+02 0.21027739E+01 0.38099037E-01
#rwgt            1           3   107.92249625610494         54217137    18451428           0
</event>
<event>
      6  10013  3.31628E+03  3.66584E+00 -1.00000E+00  2.72613E-01
       4    -1     0     0   501     0  0.000000000E+00  0.000000000E+00  4.495156640E-01  4.495156640E-01  0.000000000E+00  0.00000E+00  9.000E+00
      -4    -1     0     0     0   511  0.000000000E+00  0.000000000E+00 -8.834151269E+02  8.834151269E+02  0.000000000E+00  0.00000E+00  9.000E+00
      23     2     1     2     0     0 -3.258891994E+00 -1.678682707E+00 -5.430922694E+02  5.439715316E+02  3.069814027E+01  0.00000E+00  9.000E+00
      13     1     3     3     0     0 -2.670258161E+00 -6.661270723E+00 -2.970707935E+01  3.056181495E+01  1.056583668E-01  0.00000E+00  9.000E+00
     -13     1     3     3     0     0 -5.886338336E-01  4.982588016E+00 -5.133851900E+02  5.134097167E+02  1.056583668E-01  0.00000E+00  9.000E+00
      21     1     1     2   501   511  3.258891994E+00  1.678682707E+00 -3.398733418E+02  3.398931109E+02  3.814697266E-06  0.00000E+00  9.000E+00
#pdf   4 -4 0.67158411E-04 0.83030378E-01 0.30698140E+02 0.23647458E+01 0.40671163E-01
#rwgt            1           9   98.932300012237334         54217137    18451511           0
</event>
<event>
      6  10013  3.31628E+03  1.40833E+01 -1.00000E+00  1.79954E-01
       1    -1     0     0   501     0  0.000000000E+00  0.000000000E+00  3.519335364E+02  3.519335364E+02  0.000000000E+00  0.00000E+00  9.000E+00
      21    -1     0     0   511   501  0.000000000E+00  0.000000000E+00 -1.137791575E+02  1.137791575E+02  0.000000000E+00  0.00000E+00  9.000E+00
      23     2     1     2     0     0 -5.684410365E+00 -1.288518442E+01  3.453480466E+02  3.575978342E+02  9.172021147E+01  0.00000E+00  9.000E+00
      13     1     3     3     0     0  1.630055647E+01  5.012091990E+00  3.171661629E+02  3.176243304E+02  1.056583668E-01  0.00000E+00  9.000E+00
     -13     1     3     3     0     0 -2.198496684E+01 -1.789727641E+01  2.818188374E+01  3.997350378E+01  1.056583668E-01  0.00000E+00  9.000E+00
       1     1     1     2   511     0  5.684410365E+00  1.288518442E+01 -1.071936677E+02  1.081148597E+02  0.000000000E+00  0.00000E+00  9.000E+00
#pdf   1 -1 0.53446388E-01 0.93137597E-03 0.91720211E+02 0.43739067E+00 0.14990755E+01
#rwgt            1           6   1161.7750889363770         54217137    18451724           0
</event>
<event>
      6  10013  3.31628E+03  3.65755E+00 -1.00000E+00  2.72862E-01
       3    -1     0     0   501     0  0.000000000E+00  0.000000000E+00  5.464323735E+00  5.464323735E+00  0.000000000E+00  0.00000E+00  9.000E+00
      21    -1     0     0   511   501  0.000000000E+00  0.000000000E+00 -5.521977280E+01  5.521977280E+01  0.000000000E+00  0.00000E+00  9.000E+00
      23     2     1     2     0     0  3.655657159E+00  1.175277922E-01 -2.978187379E+01  4.037839903E+01  2.701994559E+01  0.00000E+00  9.000E+00
      13     1     3     3     0     0  1.267178016E+01 -8.076140416E+00 -1.772590417E+01  2.323826368E+01  1.056583668E-01  0.00000E+00  9.000E+00
     -13     1     3     3     0     0 -9.016122999E+00  8.193668208E+00 -1.205596962E+01  1.714013535E+01  1.056583668E-01  0.00000E+00  9.000E+00
       3     1     1     2   511     0 -3.655657159E+00 -1.175277922E-01 -1.997357527E+01  2.030569751E+01  0.000000000E+00  0.00000E+00  9.000E+00
#pdf   3 -3 0.80775047E-03 0.53481677E-02 0.27019946E+02 0.11908339E+01 0.57939993E+00
#rwgt            1           8   166.22723594234679         54217137    18451799           0
</event>
<event>
      6  10013  3.31628E+03  2.32511E+00 -1.00000E+00  3.34888E-01
      21    -1     0     0   511   501  0.000000000E+00  0.000000000E+00  5.033256798E+02  5.033256798E+02  0.000000000E+00  0.00000E+00  9.000E+00
       1    -1     0     0   501     0  0.000000000E+00  0.000000000E+00 -5.935673937E-01  5.935673937E-01  0.000000000E+00  0.00000E+00  9.000E+00
      23     2     1     2     0     0  1.611421208E+00 -1.676146104E+00  3.407122551E+02  3.418827071E+02  2.816981605E+01  0.00000E+00  9.000E+00
      13     1     3     3     0     0  1.045155027E+01  6.387741208E-01  5.295789667E+01  5.398326517E+01  1.056583668E-01  0.00000E+00  9.000E+00
     -13     1     3     3     0     0 -8.840129063E+00 -2.314920225E+00  2.877543584E+02  2.878994420E+02  1.056583668E-01  0.00000E+00  9.000E+00
       1     1     1     2   511     0 -1.611421208E+00  1.676146104E+00  1.620198573E+02  1.620365400E+02  0.000000000E+00  0.00000E+00  9.000E+00
#pdf  -1  1 0.52329355E-01 0.89729642E-04 0.28169816E+02 0.20880537E+00 0.25704470E+01
#rwgt            1           5   119.87500214512997         54217137    18451854           0
</event>
<event>
      6  10013  3.31628E+03  1.32601E+01 -1.00000E+00  1.82531E-01
      -1    -1     0     0     0   501  0.000000000E+00  0.000000000E+00  1.451978827E+02  1.451978827E+02  0.000000000E+00  0.00000E+00  9.000E+00
       1    -1     0     0   511     0  0.000000000E+00  0.000000000E+00 -2.300837416E+01  2.300837416E+01  0.000000000E+00  0.00000E+00  9.000E+00
      23     2     1     2     0     0  3.220059704E+00  1.286315911E+01  1.109136153E+02  1.508000678E+02  1.013064695E+02  0.00000E+00  9.000E+00
      13     1     3     3     0     0 -1.831909824E+01  1.443439554E+01 -1.184354625E+01  2.615763533E+01  1.056583668E-01  0.00000E+00  9.000E+00
     -13     1     3     3     0     0  2.153915794E+01 -1.571236421E+00  1.227571615E+02  1.246424325E+02  1.056583668E-01  0.00000E+00  9.000E+00
      21     1     1     2   511   501 -3.220059704E+00 -1.286315911E+01  1.127589321E+01  1.740618897E+01  2.384185791E-07  0.00000E+00  9.000E+00
#pdf  -1  1 0.19961553E-01 0.30422389E-02 0.10130647E+03 0.38076070E+00 0.10166550E+01
#rwgt            1           5   642.30425844474610         54217137    18451975           0
</event>
<event>
      6  10013  3.31628E+03  4.96031E+00 -1.00000E+00  2.43141E-01
      -1    -1     0     0     0   501  0.000000000E+00  0.000000000E+00  2.273307319E+01  2.273307319E+01  0.000000000E+00  0.00000E+00  9.000E+00
      21    -1     0     0   501   511  0.000000000E+00  0.000000000E+00 -1.867800096E+02  1.867800096E+02  0.000000000E+00  0.00000E+00  9.000E+00
      23     2     1     2     0     0  1.836626668E+00 -4.607758128E+00 -7.038239089E+01  1.157172848E+02  9.171807031E+01  0.00000E+00  9.000E+00
      13     1     3     3     0     0 -6.160563692E+00  4.130793177E+01 -4.915990344E+01  6.450585278E+01  1.056583668E-01  0.00000E+00  9.000E+00
     -13     1     3     3     0     0  7.997190361E+00 -4.591568990E+01 -2.122248744E+01  5.121143202E+01  1.056583668E-01  0.00000E+00  9.000E+00
      -1     1     1     2     0   511 -1.836626668E+00  4.607758128E+00 -9.366454555E+01  9.379579802E+01  0.000000000E+00  0.00000E+00  9.000E+00
#pdf  -1  1 0.34822107E-02 0.14294470E-01 0.91718070E+02 0.87487524E+00 0.60830917E+00
#rwgt            1           5   747.11819488798415         54217137    18452061           0
</event>
<event>
      6  10013  3.31628E+03  3.41592E+00 -1.00000E+00  2.80620E-01
       2    -1     0     0   511     0  0.000000000E+00  0.000000000E+00  9.573330159E+02  9.573330159E+02  0.000000000E+00  0.00000E+00  9.000E+00
      -2    -1     0     0     0   501  0.000000000E+00  0.000000000E+00 -2.302123709E+00  2.302123709E+00  0.000000000E+00  0.00000E+00  9.000E+00
      23     2     1     2     0     0 -3.054548988E+00  1.529138994E+00  8.471711332E+02  8.517213029E+02  8.785545182E+01  0.00000E+00  9.000E+00
      13     1     3     3     0     0 -1.669969393E+01 -2.025620224E+01  8.160814274E+01  8.572685479E+01  1.056583668E-01  0.00000E+00  9.000E+00
     -13     1     3     3     0     0  1.364514494E+01  2.178534123E+01  7.655629904E+02  7.659944481E+02  1.056583668E-01  0.00000E+00  9.000E+00
      21     1     1     2   511   501  3.054548988E+00 -1.529138994E+00  1.078597590E+02  1.079138367E+02  1.348699152E-06  0.00000E+00  9.000E+00
#pdf   2 -2 0.13058536E+00 0.34974879E-03 0.87855452E+02 0.57607701E+00 0.21509964E+01
#rwgt            1           7   1664.7878432543259         54217137    18452170           0
</event>
<event>
      6  10013  3.31628E+03  1.15292E+01 -1.00000E+00  1.88820E-01
      21    -1     0     0   511   501  0.000000000E+00  0.000000000E+00  1.850133798E+02  1.850133798E+02  0.000000000E+00  0.00000E+00  9.000E+00
       4    -1     0     0   501     0  0.000000000E+00  0.000000000E+00 -4.916662134E+01  4.916662134E+01  0.000000000E+00  0.00000E+00  9.000E+00
      23     2     1     2     0     0 -6.625164960E+00  9.435523734E+00 -6.250149975E+00  9.161614420E+01  9.067266173E+01  0.00000E+00  9.000E+00
      13     1     3     3     0     0  2.188179313E+01 -1.660702288E+01 -3.426116356E+01  4.391405893E+01  1.056583668E-01  0.00000E+00  9.000E+00
     -13     1     3     3     0     0 -2.850695809E+01  2.604254661E+01  2.801101358E+01  4.770208527E+01  1.056583668E-01  0.00000E+00  9.000E+00
       4     1     1     2   511     0  6.625164960E+00 -9.435523734E+00  1.420969085E+02  1.425638570E+02  0.000000000E+00  0.00000E+00  9.000E+00
#pdf  -4  4 0.65141671E-02 0.74680486E-02 0.90672662E+02 0.45731949E+00 0.42104051E+00
#rwgt            1           2   202.99025034911560         54217137    18452303           0
</event>
<event>
      6  10013  3.31628E+03  4.15467E+00 -1.00000E+00  2.59543E-01
       1    -1     0     0   501     0  0.000000000E+00  0.000000000E+00  8.321797921E-01  8.321797921E-01  0.000000000E+00  0.00000E+00  9.000E+00
      21    -1     0     0   511   501  0.000000000E+00  0.000000000E+00 -2.186633224E+02  2.186633224E+02  0.000000000E+00  0.00000E+00  9.000E+00
      23     2     1     2     0     0  1.481710683E+00 -3.881465851E+00 -2.047444210E+02  2.057651152E+02  2.004353940E+01  0.00000E+00  9.000E+00
      13     1     3     3     0     0 -3.621311958E+00 -2.133732106E+00 -8.866226910E+00  9.812637581E+00  1.056583668E-01  0.00000E+00  9.000E+00
     -13     1     3     3     0     0  5.103022641E+00 -1.747733745E+00 -1.958781940E+02  1.959524776E+02  1.056583668E-01  0.00000E+00  9.000E+00
       1     1     1     2   511     0 -1.481710683E+00  3.881465851E+00 -1.308672164E+01  1.373038700E+01  0.000000000E+00  0.00000E+00  9.000E+00
#pdf   1 -1 0.76880689E-04 0.30920382E-01 0.20043539E+02 0.24005434E+01 0.28195321E+00
#rwgt            1           6   147.82650701066805         54217137    18452391           0
</event>
<event>
      6  10013  3.31628E+03  5.90015E+00 -1.00000E+00  2.26530E-01
       1    -1     0     0   501     0  0.000000000E+00  0.000000000E+00  6.388791309E+00  6.388791309E+00  0.000000000E+00  0.00000E+00  9.000E+00
      -1    -1     0     0     0   511  0.000000000E+00  0.000000000E+00 -3.838729424E+02  3.838729424E+02  0.000000000E+00  0.00000E+00  9.000E+00
      23     2     1     2     0     0 -5.835428435E+00 -8.715225516E-01 -3.505179568E+02  3.626576143E+02  9.285954641E+01  0.00000E+00  9.000E+00
      13     1     3     3     0     0  8.276683723E-01 -1.906032997E+01 -3.401533238E+02  3.406879453E+02  1.056583668E-01  0.00000E+00  9.000E+00
     -13     1     3     3     0     0 -6.663096807E+00  1.818880741E+01 -1.036463305E+01  2.196966900E+01  1.056583668E-01  0.00000E+00  9.000E+00
      21     1     1     2   501   511  5.835428435E+00  8.715225516E-01 -2.696619430E+01  2.760411947E+01  3.371747881E-07  0.00000E+00  9.000E+00
#pdf   1 -1 0.93194051E-03 0.54749256E-01 0.92859546E+02 0.15448104E+01 0.19993857E+00
#rwgt            1           6   311.85576108563401         54217137    18452434           0
</event>
<event>
      6  10013  3.31628E+03  8.58130E+00 -1.00000E+00  2.03702E-01
      -2    -1     0     0     0   501  0.000000000E+00  0.000000000E+00  6.766861427E+00  6.766861427E+00  0.000000000E+00  0.00000E+00  9.000E+00
      21    -1     0     0   501   511  0.000000000E+00  0.000000000E+00 -6.378339468E+01  6.378339468E+01  0.000000000E+00  0.00000E+00  9.000E+00
      23     2     1     2     0     0  5.253279725E+00  6.785405262E+00 -5.029429366E+01  5.964946817E+01  3.090152757E+01  0.00000E+00  9.000E+00
      13     1     3     3     0     0 -1.104392063E+01  7.084992393E+00 -1.104987811E+01  1.715448251E+01  1.056583668E-01  0.00000E+00  9.000E+00
     -13     1     3     3     0     0  1.629720035E+01 -2.995871311E-01 -3.924441555E+01  4.249498567E+01  1.056583668E-01  0.00000E+00  9.000E+00
      -2     1     1     2     0   511 -5.253279725E+00 -6.785405262E+00 -6.722239593E+00  1.090078793E+01  0.000000000E+00  0.00000E+00  9.000E+00
#pdf  -2  2 0.69338948E-03 0.81488429E-02 0.30901528E+02 0.13422598E+01 0.72595679E+00
#rwgt            1           4   1085.8057631899853         54217137    18452497           0
</event>
<event>
      6  10013  3.31628E+03  9.46173E+00 -1.00000E+00  1.98516E-01
       2    -1     0     0   511     0  0.000000000E+00  0.000000000E+00  8.311464784E+01  8.311464784E+01  0.000000000E+00  0.00000E+00  9.000E+00
      -2    -1     0     0     0   501  0.000000000E+00  0.000000000E+00 -3.117946734E+01  3.117946734E+01  0.000000000E+00  0.00000E+00  9.000E+00
      23     2     1     2     0     0 -1.340022437E+00 -9.366359478E+00  2.478721606E+01  8.554457044E+01  8.132615263E+01  0.00000E+00  9.000E+00
      13     1     3     3     0     0  3.787898768E+00  3.598254335E+01  1.252227395E+01  3.828720559E+01  1.056583668E-01  0.00000E+00  9.000E+00
     -13     1     3     3     0     0 -5.127921206E+00 -4.534890283E+01  1.226494212E+01  4.725736485E+01  1.056583668E-01  0.00000E+00  9.000E+00
      21     1     1     2   511   501  1.340022437E+00  9.366359478E+00  2.714796444E+01  2.874954475E+01  3.371747881E-07  0.00000E+00  9.000E+00
#pdf   2 -2 0.84301980E-02 0.46423297E-02 0.81326153E+02 0.78528818E+00 0.74823236E+00
#rwgt            1           7   495.67636699893507         54217137    18452596           0
</event>
<event>
      6  10013  3.31628E+03  2.26870E+01 -1.00000E+00  1.61936E-01
       2    -1     0     0   501     0  0.000000000E+00  0.000000000E+00  6.673054702E+01  6.673054702E+01  0.000000000E+00  0.00000E+00  9.000E+00
      21    -1     0     0   511   501  0.000000000E+00  0.000000000E+00 -9.131972551E+01  9.131972551E+01  0.000000000E+00  0.00000E+00  9.000E+00
      23     2     1     2     0     0 -8.451227364E+00 -2.105408738E+01  3.000855944E+01  9.892658162E+01  9.149457400E+01  0.00000E+00  9.000E+00
      13     1     3     3     0     0  1.632367551E+01  3.038114635E+01  1.290152588E-01  3.448919026E+01  1.056583668E-01  0.00000E+00  9.000E+00
     -13     1     3     3     0     0 -2.477490288E+01 -5.143523373E+01  2.987954418E+01  6.443739136E+01  1.056583668E-01  0.00000E+00  9.000E+00
       2     1     1     2   511     0  8.451227364E+00  2.105408738E+01 -5.459773793E+01  5.912369091E+01  0.000000000E+00  0.00000E+00  9.000E+00
#pdf   2 -2 0.96265625E-02 0.51455611E-02 0.91494574E+02 0.76916938E+00 0.72261420E+00
#rwgt            1           7   462.84915756605352         54217137    18452677           0
</event>
<event>
      6  10013  3.31628E+03  3.72401E+01 -1.00000E+00  1.46760E-01
      21    -1     0     0   511   501  0.000000000E+00  0.000000000E+00  2.694208265E+01  2.694208265E+01  0.000000000E+00  0.00000E+00  9.000E+00
       1    -1     0     0   501     0  0.000000000E+00  0.000000000E+00 -2.510716080E+02  2.510716080E+02  0.000000000E+00  0.00000E+00  9.000E+00
      23     2     1     2     0     0 -9.746452992E-01 -3.722733098E+01 -2.199151588E+02  2.405358973E+02  9.004452632E+01  0.00000E+00  9.000E+00
      13     1     3     3     0     0 -1.662424325E+01 -6.381229611E+01 -1.363578221E+02  1.514656444E+02  1.056583668E-01  0.00000E+00  9.000E+00
     -13     1     3     3     0     0  1.564959795E+01  2.658496513E+01 -8.355733668E+01  8.907025297E+01  1.056583668E-01  0.00000E+00  9.000E+00
       1     1     1     2   511     0  9.746452992E-01  3.722733098E+01 -4.214366509E+00  3.747779330E+01  0.000000000E+00  0.00000E+00  9.000E+00
#pdf  -1  1 0.14657987E-02 0.32730572E-01 0.90044526E+02 0.12493468E+01 0.49146462E+00
#rwgt            1           5   782.42379907537952         54217137    18452723           0
</event>
<event>
      6  10013  3.31628E+03  9.79147E+00 -1.00000E+00  1.96762E-01
       1    -1     0     0   501     0  0.000000000E+00  0.000000000E+00  1.914332761E+03  1.914332761E+03  0.000000000E+00  0.00000E+00  9.000E+00
      21    -1     0     0   511   501  0.000000000E+00  0.000000000E+00 -1.495076235E+00  1.495076235E+00  0.000000000E+00  0.00000E+00  9.000E+00
      23     2     1     2     0     0 -9.169795244E+00  3.433324138E+00  1.841119419E+03  1.843444258E+03  9.203339315E+01  0.00000E+00  9.000E+00
      13     1     3     3     0     0 -5.036501053E+01  7.531841066E-01  1.137655860E+03  1.138770420E+03  1.056583668E-01  0.00000E+00  9.000E+00
     -13     1     3     3     0     0  4.119521528E+01  2.680140031E+00  7.034635591E+02  7.046738387E+02  1.056583668E-01  0.00000E+00  9.000E+00
       1     1     1     2   511     0  9.169795244E+00 -3.433324138E+00  7.171826524E+01  7.238357845E+01  0.000000000E+00  0.00000E+00  9.000E+00
#pdf   1 -1 0.28183742E+00 0.17783020E-03 0.92033393E+02 0.14677531E+00 0.27859702E+01
#rwgt            1           6   939.02259220022472         54217137    18452748           0
</event>
<event>
      6  10013  3.31628E+03  1.05185E+01 -1.00000E+00  1.93196E-01
       2    -1     0     0   501     0  0.000000000E+00  0.000000000E+00  3.901540223E+01  3.901540223E+01  0.000000000E+00  0.00000E+00  9.000E+00
      21    -1     0     0   511   501  0.000000000E+00  0.000000000E+00 -7.396608590E+00  7.396608590E+00  0.000000000E+00  0.00000E+00  9.000E+00
      23     2     1     2     0     0 -7.297722276E+00  7.575163127E+00  2.607415290E+01  3.452155718E+01  2.003089148E+01  0.00000E+00  9.000E+00
      13     1     3     3     0     0 -5.272900181E+00  1.183477965E+01  6.710168979E+00  1.459119656E+01  1.056583668E-01  0.00000E+00  9.000E+00
     -13     1     3     3     0     0 -2.024822095E+00 -4.259616519E+00  1.936398392E+01  1.993036062E+01  1.056583668E-01  0.00000E+00  9.000E+00
       2     1     1     2   511     0  7.297722276E+00 -7.575163127E+00  5.544640733E+00  1.189045364E+01  0.000000000E+00  0.00000E+00  9.000E+00
#pdf   2 -2 0.41268266E-02 0.57530431E-03 0.20030891E+02 0.78579608E+00 0.12791605E+01
#rwgt            1           7   972.78634605708464         54217137    18452781           0
</event>
<event>
      6  10013  3.31628E+03  2.29762E+01 -1.00000E+00  1.61508E-01
      -3    -1     0     0     0   511  0.000000000E+00  0.000000000E+00  6.351590968E+00  6.351590968E+00  0.000000000E+00  0.00000E+00  9.000E+00
       3    -1     0     0   501     0  0.000000000E+00  0.000000000E+00 -6.361948214E+02  6.361948214E+02  0.000000000E+00  0.00000E+00  9.000E+00
      23     2     1     2     0     0  5.653124675E+00 -2.226988901E+01 -5.810991905E+02  5.886586846E+02  9.118591991E+01  0.00000E+00  9.000E+00
      13     1     3     3     0     0 -9.848065312E+00 -2.778031066E+01 -5.583628447E+01  6.313819666E+01  1.056583668E-01  0.00000E+00  9.000E+00
     -13     1     3     3     0     0  1.550118999E+01  5.510421650E+00 -5.252629060E+02  5.255204879E+02  1.056583668E-01  0.00000E+00  9.000E+00
      21     1     1     2   501   511 -5.653124675E+00  2.226988901E+01 -4.874404000E+01  5.388772783E+01  6.743495762E-07  0.00000E+00  9.000E+00
#pdf  -3  3 0.56387496E-03 0.87254142E-01 0.91185920E+02 0.17650333E+01 0.77285741E-01
#rwgt            1           3   171.92906335901478         54217137    18452829           0
</event>
<event>
      6  10013  3.31628E+03  4.51311E+00 -1.00000E+00  2.51603E-01
      -2    -1     0     0     0   511  0.000000000E+00  0.000000000E+00  3.940184832E+01  3.940184832E+01  0.000000000E+00  0.00000E+00  9.000E+00
       2    -1     0     0   501     0  0.000000000E+00  0.000000000E+00 -5.912203219E+01  5.912203219E+01  0.000000000E+00  0.00000E+00  9.000E+00
      23     2     1     2     0     0 -2.797829354E+00  3.541224112E+00 -2.085835609E+01  9.386946828E+01  9.141136657E+01  0.00000E+00  9.000E+00
      13     1     3     3     0     0 -1.483157293E+01  1.341465550E+01 -5.382089245E+01  5.741627091E+01  1.056583668E-01  0.00000E+00  9.000E+00
     -13     1     3     3     0     0  1.203374358E+01 -9.873431383E+00  3.296253636E+01  3.645319737E+01  1.056583668E-01  0.00000E+00  9.000E+00
      21     1     1     2   501   511  2.797829354E+00 -3.541224112E+00  1.138172220E+00  4.654412241E+00  4.712160915E-08  0.00000E+00  9.000E+00
#pdf  -2  2 0.56094070E-02 0.88144810E-02 0.91411367E+02 0.69399968E+00 0.78410988E+00
#rwgt            1           4   676.35883714823626         54217137    18452858           0
</event>
<event>
      6  10013  3.31628E+03  8.68640E+00 -1.00000E+00  2.03041E-01
      -1    -1     0     0     0   511  0.000000000E+00  0.000000000E+00  4.729313529E+01  4.729313529E+01  0.000000000E+00  0.00000E+00  9.000E+00
       1    -1     0     0   501     0  0.000000000E+00  0.000000000E+00 -6.216367308E+01  6.216367308E+01  0.000000000E+00  0.00000E+00  9.000E+00
      23     2     1     2     0     0  8.125068478E+00 -3.071950505E+00 -2.623054249E+01  9.515634250E+01  9.105621638E+01  0.00000E+00  9.000E+00
      13     1     3     3     0     0 -7.777056282E+00 -4.472986930E+01 -2.174928241E+01  5.034169505E+01  1.056583668E-01  0.00000E+00  9.000E+00
     -13     1     3     3     0     0  1.590212476E+01  4.165791879E+01 -4.481260074E+00  4.481464744E+01  1.056583668E-01  0.00000E+00  9.000E+00
      21     1     1     2   501   511 -8.125068478E+00  3.071950505E+00  1.136000469E+01  1.430046588E+01  2.920019320E-07  0.00000E+00  9.000E+00
#pdf  -1  1 0.52780229E-02 0.92952532E-02 0.91056216E+02 0.72843051E+00 0.69080168E+00
#rwgt            1           5   774.16438300591938         54217137    18452995           0
</event>
<event>
      6  10013  3.31628E+03  1.36264E+01 -1.00000E+00  1.81355E-01
      21    -1     0     0   501   511  0.000000000E+00  0.000000000E+00  2.659926915E+00  2.659926915E+00  0.000000000E+00  0.00000E+00  9.000E+00
      -1    -1     0     0     0   501  0.000000000E+00  0.000000000E+00 -1.068435953E+03  1.068435953E+03  0.000000000E+00  0.00000E+00  9.000E+00
      23     2     1     2     0     0 -1.238386993E+01  5.684986018E+00 -9.959917506E+02  9.999936689E+02  8.832944791E+01  0.00000E+00  9.000E+00
      13     1     3     3     0     0  3.442571247E+01 -1.578869054E+01 -4.235093466E+02  4.251994711E+02  1.056583668E-01  0.00000E+00  9.000E+00
     -13     1     3     3     0     0 -4.680958240E+01  2.147367656E+01 -5.724824040E+02  5.747941978E+02  1.056583668E-01  0.00000E+00  9.000E+00
      -1     1     1     2     0   511  1.238386993E+01 -5.684986018E+00 -6.978427579E+01  7.110221127E+01  0.000000000E+00  0.00000E+00  9.000E+00
#pdf   1 -1 0.30424090E-03 0.15174233E+00 0.88329448E+02 0.22958317E+01 0.63687302E-01
#rwgt            1           6   222.06797732824390         54217137    18453086           0
</event>
<event>
      6  10013  3.31628E+03  5.27313E+00 -1.00000E+00  2.34465E-01
      -2    -1     0     0     0   501  0.000000000E+00  0.000000000E+00  2.527085607E+00  2.527085607E+00  0.000000000E+00  0.00000E+00  9.000E+00
       2    -1     0     0   511     0  0.000000000E+00  0.000000000E+00 -1.013872816E+03  1.013872816E+03  0.000000000E+00  0.00000E+00  9.000E+00
      23     2     1     2     0     0  5.272959192E+00  4.202849839E-02 -8.587262138E+02  8.636893168E+02  9.230774525E+01  0.00000E+00  9.000E+00
      13     1     3     3     0     0 -2.245503523E+01 -1.212375956E+01 -7.214191048E+01  7.652241871E+01  1.056583668E-01  0.00000E+00  9.000E+00
     -13     1     3     3     0     0  2.772799442E+01  1.216578806E+01 -7.865843033E+02  7.871668981E+02  1.056583668E-01  0.00000E+00  9.000E+00
      21     1     1     2   511   501 -5.272959192E+00 -4.202849839E-02 -1.526195168E+02  1.527105850E+02  1.907348633E-06  0.00000E+00  9.000E+00
#pdf  -2  2 0.38115574E-03 0.13227785E+00 0.92307745E+02 0.21036688E+01 0.57320707E+00
#rwgt            1           4   1288.8770777273337         54217137    18453205           0
</event>
<event>
      6  10013  3.31628E+03  1.44012E+01 -1.00000E+00  1.79018E-01
      -2    -1     0     0     0   501  0.000000000E+00  0.000000000E+00  4.348286709E+02  4.348286709E+02  0.000000000E+00  0.00000E+00  9.000E+00
      21    -1     0     0   501   511  0.000000000E+00  0.000000000E+00 -9.913128744E-01  9.913128744E-01  0.000000000E+00  0.00000E+00  9.000E+00
      23     2     1     2     0     0 -7.534773860E+00 -1.227276289E+01  2.998473245E+02  3.010582585E+02  2.280928429E+01  0.00000E+00  9.000E+00
      13     1     3     3     0     0  5.501173039E+00 -3.097927472E+00  2.632158339E+01  2.706837593E+01  1.056583668E-01  0.00000E+00  9.000E+00
     -13     1     3     3     0     0 -1.303594690E+01 -9.174835419E+00  2.735257411E+02  2.739898826E+02  1.056583668E-01  0.00000E+00  9.000E+00
      -2     1     1     2     0   511  7.534773860E+00  1.227276289E+01  1.339900335E+02  1.347617253E+02  0.000000000E+00  0.00000E+00  9.000E+00
#pdf  -2  2 0.39085097E-01 0.78763574E-04 0.22809284E+02 0.21778065E+00 0.24961074E+01
#rwgt            1           4   549.33193047002374         54217137    18453464           0
</event>
<event>
      6  10013  3.31628E+03  3.06574E+00 -1.00000E+00  2.93904E-01
       3    -1     0     0   511     0  0.000000000E+00  0.000000000E+00  4.470781365E+00  4.470781365E+00  0.000000000E+00  0.00000E+00  9.000E+00
      -3    -1     0     0     0   501  0.000000000E+00  0.000000000E+00 -5.198730312E+02  5.198730312E+02  0.000000000E+00  0.00000E+00  9.000E+00
      23     2     1     2     0     0 -1.554525063E+00  2.642388364E+00 -5.129474524E+02  5.204163713E+02  8.779926995E+01  0.00000E+00  9.000E+00
      13     1     3     3     0     0  3.877349118E+01 -1.190429223E+01 -1.685849304E+02  1.733954605E+02  1.056583668E-01  0.00000E+00  9.000E+00
     -13     1     3     3     0     0 -4.032801625E+01  1.454668059E+01 -3.443625220E+02  3.470209108E+02  1.056583668E-01  0.00000E+00  9.000E+00
      21     1     1     2   511   501  1.554525063E+00 -2.642388364E+00 -2.454797366E+00  3.927441221E+00  1.365713982E-07  0.00000E+00  9.000E+00
#pdf   3 -3 0.57418229E-03 0.79441111E-01 0.87799270E+02 0.17403297E+01 0.87909454E-01
#rwgt            1           8   211.55601870156070         54217137    18453518           0
</event>
<event>
      6  10013  3.31628E+03  5.42703E+00 -1.00000E+00  2.32378E-01
       4    -1     0     0   501     0  0.000000000E+00  0.000000000E+00  7.760987220E+00  7.760987220E+00  0.000000000E+00  0.00000E+00  9.000E+00
      21    -1     0     0   511   501  0.000000000E+00  0.000000000E+00 -4.216903984E+01  4.216903984E+01  0.000000000E+00  0.00000E+00  9.000E+00
      23     2     1     2     0     0 -5.157266857E+00 -1.689752541E+00 -2.254140251E+01  3.688127042E+01  2.868206086E+01  0.00000E+00  9.000E+00
      13     1     3     3     0     0 -1.608660401E+01  1.300901845E+00 -1.916874448E+01  2.505839386E+01  1.056583668E-01  0.00000E+00  9.000E+00
     -13     1     3     3     0     0  1.092933715E+01 -2.990654386E+00 -3.372658029E+00  1.182287656E+01  1.056583668E-01  0.00000E+00  9.000E+00
       4     1     1     2   511     0  5.157266857E+00  1.689752541E+00 -1.186665011E+01  1.304875665E+01  0.000000000E+00  0.00000E+00  9.000E+00
#pdf   4 -4 0.10838358E-02 0.44912840E-02 0.28682061E+02 0.85553266E+00 0.45506071E+00
#rwgt            1           9   375.13272689043936         54217137    18453705           0
</event>
<event>
      6  10013  3.31628E+03  6.11565E+00 -1.00000E+00  2.24114E-01
      -1    -1     0     0     0   501  0.000000000E+00  0.000000000E+00  2.524582515E+01  2.524582515E+01  0.000000000E+00  0.00000E+00  9.000E+00
       1    -1     0     0   511     0  0.000000000E+00  0.000000000E+00 -1.038723371E+02  1.038723371E+02  0.000000000E+00  0.00000E+00  9.000E+00
      23     2     1     2     0     0  5.816218809E-02 -6.115376097E+00 -5.530620172E+01  1.050092826E+02  8.905488353E+01  0.00000E+00  9.000E+00
      13     1     3     3     0     0 -3.446387910E+01 -2.877412738E+01 -1.508229857E+01  4.736239292E+01  1.056583668E-01  0.00000E+00  9.000E+00
     -13     1     3     3     0     0  3.452204129E+01  2.265875129E+01 -4.022390315E+01  5.764688971E+01  1.056583668E-01  0.00000E+00  9.000E+00
      21     1     1     2   511   501 -5.816218809E-02  6.115376097E+00 -2.332031025E+01  2.410887965E+01  3.371747881E-07  0.00000E+00  9.000E+00
#pdf  -1  1 0.38143304E-02 0.12302984E-01 0.89054884E+02 0.83832930E+00 0.63410686E+00
#rwgt            1           5   675.10059699079432         54217137    18453848           0
</event>
<event>
      6  10013  3.31628E+03  4.59018E+00 -1.00000E+00  2.50041E-01
      21    -1     0     0   511   501  0.000000000E+00  0.000000000E+00  3.491713262E+01  3.491713262E+01  0.000000000E+00  0.00000E+00  9.000E+00
       2    -1     0     0   501     0  0.000000000E+00  0.000000000E+00 -6.556021932E+01  6.556021932E+01  0.000000000E+00  0.00000E+00  9.000E+00
      23     2     1     2     0     0 -3.111938484E+00  3.374257572E+00 -3.126389347E+01  9.584537867E+01  9.048666091E+01  0.00000E+00  9.000E+00
      13     1     3     3     0     0 -2.912157338E+01  3.626069622E+01 -5.997874468E+00  4.689232121E+01  1.056583668E-01  0.00000E+00  9.000E+00
     -13     1     3     3     0     0  2.600963490E+01 -3.288643865E+01 -2.526601900E+01  4.895305746E+01  1.056583668E-01  0.00000E+00  9.000E+00
       2     1     1     2   511     0  3.111938484E+00 -3.374257572E+00  6.208067650E-01  4.631973265E+00  0.000000000E+00  0.00000E+00  9.000E+00
#pdf  -2  2 0.49614270E-02 0.97650801E-02 0.90486661E+02 0.73408147E+00 0.76627487E+00
#rwgt            1           4   504.47790573514510         54217137    18453917           0
</event>
<event>
      6  10013  3.31628E+03  1.04800E+01 -1.00000E+00  1.93376E-01
      21    -1     0     0   511   501  0.000000000E+00  0.000000000E+00  6.346597660E+00  6.346597660E+00  0.000000000E+00  0.00000E+00  9.000E+00
       1    -1     0     0   501     0  0.000000000E+00  0.000000000E+00 -1.765763917E+02  1.765763917E+02  0.000000000E+00  0.00000E+00  9.000E+00
      23     2     1     2     0     0  1.024773275E+01  2.194121571E+00 -1.706353426E+02  1.724351552E+02  2.253069923E+01  0.00000E+00  9.000E+00
      13     1     3     3     0     0 -1.101937224E+00  1.051437468E+01 -8.428993766E+01  8.495040373E+01  1.056583668E-01  0.00000E+00  9.000E+00
     -13     1     3     3     0     0  1.134966997E+01 -8.320253110E+00 -8.634540490E+01  8.748475142E+01  1.056583668E-01  0.00000E+00  9.000E+00
       1     1     1     2   511     0 -1.024773275E+01 -2.194121571E+00  4.055485547E-01  1.048783417E+01  0.000000000E+00  0.00000E+00  9.000E+00
#pdf  -1  1 0.12553166E-03 0.23928163E-01 0.22530699E+02 0.21460200E+01 0.50345952E+00
#rwgt            1           5   255.68546238338880         54217137    18454094           0
</event>
<event>
      6  10013  3.31628E+03  3.09080E+00 -1.00000E+00  2.92858E-01
      -3    -1     0     0     0   501  0.000000000E+00  0.000000000E+00  5.181353113E+01  5.181353113E+01  0.000000000E+00  0.00000E+00  9.000E+00
       3    -1     0     0   511     0  0.000000000E+00  0.000000000E+00 -4.873820462E+00  4.873820462E+00  0.000000000E+00  0.00000E+00  9.000E+00
      23     2     1     2     0     0  1.264916948E+00 -2.820115165E+00  4.468403721E+01  5.286097900E+01  2.807252848E+01  0.00000E+00  9.000E+00
      13     1     3     3     0     0  1.612647806E-01 -1.509816567E+01  1.819882609E+01  2.364717843E+01  1.056583668E-01  0.00000E+00  9.000E+00
     -13     1     3     3     0     0  1.103652167E+00  1.227805050E+01  2.648521111E+01  2.921380057E+01  1.056583668E-01  0.00000E+00  9.000E+00
      21     1     1     2   511   501 -1.264916948E+00  2.820115165E+00  2.255673459E+00  3.826372588E+00  4.214684851E-08  0.00000E+00  9.000E+00
#pdf  -3  3 0.74583931E-02 0.62521745E-03 0.28072528E+02 0.50239615E+00 0.13138456E+01
#rwgt            1           3   152.27322473760054         54217137    18454142           0
</event>
<event>
      6  10013  3.31628E+03  1.46173E+01 -1.00000E+00  1.78399E-01
       1    -1     0     0   501     0  0.000000000E+00  0.000000000E+00  2.173626899E+03  2.173626899E+03  0.000000000E+00  0.00000E+00  9.000E+00
      21    -1     0     0   511   501  0.000000000E+00  0.000000000E+00 -1.289138963E+00  1.289138963E+00  0.000000000E+00  0.00000E+00  9.000E+00
      23     2     1     2     0     0  7.363920739E-01 -1.459871662E+01  1.936471419E+03  1.938597195E+03  8.957601396E+01  0.00000E+00  9.000E+00
      13     1     3     3     0     0  2.545686706E+01 -3.550327074E+01  1.594099863E+03  1.594698378E+03  1.056583668E-01  0.00000E+00  9.000E+00
     -13     1     3     3     0     0 -2.472047499E+01  2.090455411E+01  3.423715567E+02  3.438988169E+02  1.056583668E-01  0.00000E+00  9.000E+00
       1     1     1     2   511     0 -7.363920739E-01  1.459871662E+01  2.358663410E+02  2.363188431E+02  0.000000000E+00  0.00000E+00  9.000E+00
#pdf   1 -1 0.29419098E+00 0.16138658E-03 0.89576014E+02 0.13655683E+00 0.28674904E+01
#rwgt            1           6   918.26190355706763         54217137    18454294           0
</event>
<event>
      5  10013  3.31628E+03  8.94427E-01 -1.00000E+00  6.44223E-01
      -1    -1     0     0     0   501  0.000000000E+00  0.000000000E+00  1.514956219E+01  1.514956219E+01  0.000000000E+00  0.00000E+00  9.000E+00
       1    -1     0     0   501     0  0.000000000E+00  0.000000000E+00 -2.392293950E+01  2.392293950E+01  0.000000000E+00  0.00000E+00  9.000E+00
      23     2     1     2     0     0  0.000000000E+00  0.000000000E+00 -8.773377303E+00  3.907250169E+01  3.807477169E+01  0.00000E+00  9.000E+00
      13     1     3     3     0     0  1.346419399E+01 -5.873808088E+00  8.039489063E+00  1.674606489E+01  1.056583668E-01  0.00000E+00  9.000E+00
     -13     1     3     3     0     0 -1.346419399E+01  5.873808088E+00 -1.681286637E+01  2.232643680E+01  1.056583668E-01  0.00000E+00  9.000E+00
#pdf  -1  1 0.23307019E-02 0.36804522E-02 0.38074772E+02 0.90978667E+00 0.84367164E+00
#rwgt            1           5   289.48477159635030         54217137    18454377           0
</event>
<event>
      6  10013  3.31628E+03  1.49991E+01 -1.00000E+00  1.77339E-01
       2    -1     0     0   501     0  0.000000000E+00  0.000000000E+00  4.131296480E+02  4.131296480E+02  0.000000000E+00  0.00000E+00  9.000E+00
      -2    -1     0     0     0   511  0.000000000E+00  0.000000000E+00 -4.072803511E+00  4.072803511E+00  0.000000000E+00  0.00000E+00  9.000E+00
      23     2     1     2     0     0 -1.106727411E+01  1.012361072E+01  3.915874546E+02  3.941774296E+02  4.254573271E+01  0.00000E+00  9.000E+00
      13     1     3     3     0     0 -8.467469097E+00  5.800393857E-01  3.732129303E+02  3.733094387E+02  1.056583668E-01  0.00000E+00  9.000E+00
     -13     1     3     3     0     0 -2.599805009E+00  9.543571330E+00  1.837452423E+01  2.086799090E+01  1.056583668E-01  0.00000E+00  9.000E+00
      21     1     1     2   501   511  1.106727411E+01 -1.012361072E+01  1.746938990E+01  2.302502190E+01  5.331201500E-07  0.00000E+00  9.000E+00
#pdf   2 -2 0.57004767E-01 0.18789453E-03 0.42545733E+02 0.62915970E+00 0.22681700E+01
#rwgt            1           7   1445.2966878430962         54217137    18454548           0
</event>
<event>
      6  10013  3.31628E+03  1.68048E+01 -1.00000E+00  1.72813E-01
       4    -1     0     0   501     0  0.000000000E+00  0.000000000E+00  2.055485246E+01  2.055485246E+01  0.000000000E+00  0.00000E+00  9.000E+00
      -4    -1     0     0     0   511  0.000000000E+00  0.000000000E+00 -1.446847482E+02  1.446847482E+02  0.000000000E+00  0.00000E+00  9.000E+00
      23     2     1     2     0     0 -4.166061633E+00  1.628020505E+01 -8.628179087E+01  1.238284888E+02  8.721551497E+01  0.00000E+00  9.000E+00
      13     1     3     3     0     0 -4.471377935E+01  1.115325299E+01 -5.821962381E+01  7.425128199E+01  1.056583668E-01  0.00000E+00  9.000E+00
     -13     1     3     3     0     0  4.054771772E+01  5.126952061E+00 -2.806216705E+01  4.957720679E+01  1.056583668E-01  0.00000E+00  9.000E+00
      21     1     1     2   501   511  4.166061633E+00 -1.628020505E+01 -3.784810491E+01  4.141111193E+01  0.000000000E+00  0.00000E+00  9.000E+00
#pdf   4 -4 0.28360418E-02 0.15870411E-01 0.87215515E+02 0.71602552E+00 0.25056728E+00
#rwgt            1           9   168.21514048576586         54217137    18454638           0
</event>
<event>
      6  10013  3.31628E+03  2.85440E+01 -1.00000E+00  1.54520E-01
      21    -1     0     0   511   501  0.000000000E+00  0.000000000E+00  1.390178413E+02  1.390178413E+02  0.000000000E+00  0.00000E+00  9.000E+00
       2    -1     0     0   501     0  0.000000000E+00  0.000000000E+00 -3.754499006E+01  3.754499006E+01  0.000000000E+00  0.00000E+00  9.000E+00
      23     2     1     2     0     0 -1.131423236E+01  2.620582810E+01  1.095425839E+02  1.469000960E+02  9.362319828E+01  0.00000E+00  9.000E+00
      13     1     3     3     0     0  3.103468129E+01 -1.396451877E+01  6.537528156E+01  7.370276677E+01  1.056583668E-01  0.00000E+00  9.000E+00
     -13     1     3     3     0     0 -4.234891365E+01  4.017034688E+01  4.416730232E+01  7.319732928E+01  1.056583668E-01  0.00000E+00  9.000E+00
       2     1     1     2   511     0  1.131423236E+01 -2.620582810E+01 -8.069732646E+00  2.966273530E+01  0.000000000E+00  0.00000E+00  9.000E+00
#pdf  -2  2 0.18868888E-01 0.27487418E-02 0.93623198E+02 0.36678336E+00 0.10865182E+01
#rwgt            1           4   373.49193235548870         54217137    18454753           0
</event>
<event>
      6  10013  3.31628E+03  5.66886E+01 -1.00000E+00  1.36007E-01
       2    -1     0     0   501     0  0.000000000E+00  0.000000000E+00  1.159094490E+03  1.159094490E+03  0.000000000E+00  0.00000E+00  9.000E+00
      -2    -1     0     0     0   511  0.000000000E+00  0.000000000E+00 -8.847283089E+00  8.847283089E+00  0.000000000E+00  0.00000E+00  9.000E+00
      23     2     1     2     0     0  5.664411841E+01  2.245832923E+00  9.887501682E+02  9.967842625E+02  1.128643920E+02  0.00000E+00  9.000E+00
      13     1     3     3     0     0  3.253310242E+01  3.794190721E+01  1.778104224E+02  1.847012413E+02  1.056583668E-01  0.00000E+00  9.000E+00
     -13     1     3     3     0     0  2.411101599E+01 -3.569607428E+01  8.109397459E+02  8.120830212E+02  1.056583668E-01  0.00000E+00  9.000E+00
      21     1     1     2   501   511 -5.664411841E+01 -2.245832923E+00  1.614970391E+02  1.711575109E+02  0.000000000E+00  0.00000E+00  9.000E+00
#pdf   2 -2 0.13648466E+00 0.55225969E-03 0.11286439E+03 0.56398879E+00 0.18951742E+01
#rwgt            1           7   325.19646871030358         54217137    18454852           0
</event>
<event>
      6  10013  3.31628E+03  2.41797E+00 -1.00000E+00  3.28354E-01
      21    -1     0     0   511   501  0.000000000E+00  0.000000000E+00  3.098149802E+00  3.098149802E+00  0.000000000E+00  0.00000E+00  9.000E+00
       1    -1     0     0   501     0  0.000000000E+00  0.000000000E+00 -1.296087021E+03  1.296087021E+03  0.000000000E+00  0.00000E+00  9.000E+00
      23     2     1     2     0     0 -2.243144798E+00  9.027158588E-01 -1.293395721E+03  1.296733208E+03  9.294446650E+01  0.00000E+00  9.000E+00
      13     1     3     3     0     0  2.195294674E+01  8.363435377E+00 -1.191740010E+03  1.191971535E+03  1.056583668E-01  0.00000E+00  9.000E+00
     -13     1     3     3     0     0 -2.419609154E+01 -7.460719518E+00 -1.016557112E+02  1.047616723E+02  1.056583668E-01  0.00000E+00  9.000E+00
       1     1     1     2   511     0  2.243144798E+00 -9.027158588E-01  4.068502478E-01  2.451962812E+00  0.000000000E+00  0.00000E+00  9.000E+00
#pdf  -1  1 0.25664290E-03 0.19917330E+00 0.92944466E+02 0.24440386E+01 0.23163076E+00
#rwgt            1           5   1277.5710548200259         54217137    18454892           0
</event>
<event>
      6  10013  3.31628E+03  1.55485E+00 -1.00000E+00  4.22924E-01
      -2    -1     0     0     0   501  0.000000000E+00  0.000000000E+00  1.835051138E+02  1.835051138E+02  0.000000000E+00  0.00000E+00  9.000E+00
       2    -1     0     0   511     0  0.000000000E+00  0.000000000E+00 -1.649925652E+00  1.649925652E+00  0.000000000E+00  0.00000E+00  9.000E+00
      23     2     1     2     0     0  1.004552333E+00  1.186777487E+00  1.815561173E+02  1.835716856E+02  2.708361945E+01  0.00000E+00  9.000E+00
      13     1     3     3     0     0  4.511883175E+00 -1.151627608E+01  1.190832012E+02  1.197238559E+02  1.056583668E-01  0.00000E+00  9.000E+00
     -13     1     3     3     0     0 -3.507330842E+00  1.270305357E+01  6.247291615E+01  6.384782969E+01  1.056583668E-01  0.00000E+00  9.000E+00
      21     1     1     2   511   501 -1.004552333E+00 -1.186777487E+00  2.990708513E-01  1.583353898E+00  8.445817268E-08  0.00000E+00  9.000E+00
#pdf  -2  2 0.28040584E-01 0.15478884E-03 0.27083619E+02 0.27245984E+00 0.21493523E+01
#rwgt            1           4   565.00909905510650         54217137    18455006           0
</event>
<event>
      6  10013  3.31628E+03  1.76529E+01 -1.00000E+00  1.70926E-01
       2    -1     0     0   501     0  0.000000000E+00  0.000000000E+00  1.035195712E+03  1.035195712E+03  0.000000000E+00  0.00000E+00  9.000E+00
      21    -1     0     0   511   501  0.000000000E+00  0.000000000E+00 -3.374645680E+00  3.374645680E+00  0.000000000E+00  0.00000E+00  9.000E+00
      23     2     1     2     0     0 -1.722900778E+01  3.845131529E+00  6.830556030E+02  6.893584276E+02  9.131517447E+01  0.00000E+00  9.000E+00
      13     1     3     3     0     0 -2.703758898E+01  1.488375578E+01  6.663389117E+02  6.670533065E+02  1.056583668E-01  0.00000E+00  9.000E+00
     -13     1     3     3     0     0  9.808581193E+00 -1.103862425E+01  1.671669136E+01  2.230512103E+01  1.056583668E-01  0.00000E+00  9.000E+00
       2     1     1     2   511     0  1.722900778E+01 -3.845131529E+00  3.487654637E+02  3.492119305E+02  0.000000000E+00  0.00000E+00  9.000E+00
#pdf   2 -2 0.10365126E+00 0.47601938E-03 0.91315174E+02 0.59947176E+00 0.19308244E+01
#rwgt            1           7   1567.4952758664888         54217137    18455208           0
</event>
<event>
      6  10013  3.31628E+03  5.67041E+00 -1.00000E+00  2.29270E-01
      -2    -1     0     0     0   511  0.000000000E+00  0.000000000E+00  2.104973809E+01  2.104973809E+01  0.000000000E+00  0.00000E+00  9.000E+00
       2    -1     0     0   501     0  0.000000000E+00  0.000000000E+00 -1.175893464E+02  1.175893464E+02  0.000000000E+00  0.00000E+00  9.000E+00
      23     2     1     2     0     0 -1.336353178E+00 -5.510688732E+00 -9.729278812E+01  1.329188738E+02  9.038466052E+01  0.00000E+00  9.000E+00
      13     1     3     3     0     0  4.028058329E+01  1.641736286E+01 -4.826775440E+01  6.497570678E+01  1.056583668E-01  0.00000E+00  9.000E+00
     -13     1     3     3     0     0 -4.161693647E+01 -2.192805159E+01 -4.902503373E+01  6.794316701E+01  1.056583668E-01  0.00000E+00  9.000E+00
      21     1     1     2   501   511  1.336353178E+00  5.510688732E+00  7.531798595E-01  5.720210662E+00  3.494632065E-08  0.00000E+00  9.000E+00
#pdf  -2  2 0.27350910E-02 0.17673843E-01 0.90384661E+02 0.95643883E+00 0.69053035E+00
#rwgt            1           4   619.15979728210675         54217137    18455275           0
</event>
<event>
      6  10013  3.31628E+03  6.04296E+00 -1.00000E+00  2.24914E-01
       2    -1     0     0   501     0  0.000000000E+00  0.000000000E+00  2.603582589E+02  2.603582589E+02  0.000000000E+00  0.00000E+00  9.000E+00
      21    -1     0     0   511   501  0.000000000E+00  0.000000000E+00 -1.412805574E+00  1.412805574E+00  0.000000000E+00  0.00000E+00  9.000E+00
      23     2     1     2     0     0 -4.580073586E+00 -3.942114074E+00  1.598083981E+02  1.624500040E+02  2.854404236E+01  0.00000E+00  9.000E+00
      13     1     3     3     0     0 -4.529404799E+00  1.217692457E+01  7.673744919E+01  7.782955912E+01  1.056583668E-01  0.00000E+00  9.000E+00
     -13     1     3     3     0     0 -5.066878719E-02 -1.611903864E+01  8.307094887E+01  8.462044484E+01  1.056583668E-01  0.00000E+00  9.000E+00
       2     1     1     2   511     0  4.580073586E+00  3.942114074E+00  9.913705523E+01  9.932106049E+01  0.000000000E+00  0.00000E+00  9.000E+00
#pdf   2 -2 0.24251591E-01 0.19879434E-03 0.28544042E+02 0.63647776E+00 0.19938565E+01
#rwgt            1           7   1844.9400791028177         54217137    18455434           0
</event>
<event>
      6  10013  3.31628E+03  1.20872E+01 -1.00000E+00  1.86645E-01
       3    -1     0     0   511     0  0.000000000E+00  0.000000000E+00  5.218887432E+01  5.218887432E+01  0.000000000E+00  0.00000E+00  9.000E+00
      -3    -1     0     0     0   501  0.000000000E+00  0.000000000E+00 -6.933650318E+01  6.933650318E+01  0.000000000E+00  0.00000E+00  9.000E+00
      23     2     1     2     0     0  9.388807184E+00 -7.612556122E+00 -3.667203829E+01  9.856229246E+01  9.068399193E+01  0.00000E+00  9.000E+00
      13     1     3     3     0     0  1.715627169E+00 -2.548408302E+00  3.055510629E+01  3.070933808E+01  1.056583668E-01  0.00000E+00  9.000E+00
     -13     1     3     3     0     0  7.673180015E+00 -5.064147820E+00 -6.722714459E+01  6.785295438E+01  1.056583668E-01  0.00000E+00  9.000E+00
      21     1     1     2   511   501 -9.388807184E+00  7.612556122E+00  1.952440943E+01  2.296308504E+01  3.371747881E-07  0.00000E+00  9.000E+00
#pdf   3 -3 0.47190538E-02 0.10311447E-01 0.90683992E+02 0.71801109E+00 0.48054429E+00
#rwgt            1           8   266.94234846159259         54217137    18455508           0
</event>
<event>
      6  10013  3.31628E+03  1.53320E+01 -1.00000E+00  1.76445E-01
       1    -1     0     0   501     0  0.000000000E+00  0.000000000E+00  7.074557002E+02  7.074557002E+02  0.000000000E+00  0.00000E+00  9.000E+00
      -1    -1     0     0     0   511  0.000000000E+00  0.000000000E+00 -8.360207705E+00  8.360207705E+00  0.000000000E+00  0.00000E+00  9.000E+00
      23     2     1     2     0     0  1.527291316E+01 -1.344833397E+00  6.939402089E+02  6.996403893E+02  8.779857805E+01  0.00000E+00  9.000E+00
      13     1     3     3     0     0 -9.449191599E+00 -5.397699076E+00  8.674551211E+00  1.391694577E+01  1.056583668E-01  0.00000E+00  9.000E+00
     -13     1     3     3     0     0  2.472210476E+01  4.052865679E+00  6.852656577E+02  6.857234435E+02  1.056583668E-01  0.00000E+00  9.000E+00
      21     1     1     2   501   511 -1.527291316E+01  1.344833397E+00  5.155283544E+00  1.617551859E+01  6.391886052E-07  0.00000E+00  9.000E+00
#pdf   1 -1 0.10560048E+00 0.43193896E-03 0.87798578E+02 0.35377130E+00 0.19937521E+01
#rwgt            1           6   878.51704514135520         54217137    18455565           0
</event>
<event>
      6  10013  3.31628E+03  4.94776E+00 -1.00000E+00  2.43360E-01
       2    -1     0     0   501     0  0.000000000E+00  0.000000000E+00  2.358968941E+03  2.358968941E+03  0.000000000E+00  0.00000E+00  9.000E+00
      21    -1     0     0   511   501  0.000000000E+00  0.000000000E+00 -4.755495947E-01  4.755495947E-01  0.000000000E+00  0.00000E+00  9.000E+00
      23     2     1     2     0     0  3.673355386E+00 -3.314637519E+00  2.337956031E+03  2.338319541E+03  4.093150636E+01  0.00000E+00  9.000E+00
      13     1     3     3     0     0 -1.085021297E+01 -5.749226829E+00  2.416667432E+02  2.419785252E+02  1.056583668E-01  0.00000E+00  9.000E+00
     -13     1     3     3     0     0  1.452356836E+01  2.434589310E+00  2.096289288E+03  2.096341015E+03  1.056583668E-01  0.00000E+00  9.000E+00
       2     1     1     2   511     0 -3.673355386E+00  3.314637519E+00  2.053735983E+01  2.112494996E+01  0.000000000E+00  0.00000E+00  9.000E+00
#pdf   2 -2 0.35711394E+00 0.27760159E-04 0.40931506E+02 0.29216331E+00 0.41671988E+01
#rwgt            1           7   11685.198299863649         54217137    18455623           0
</event>
<event>
      6  10013  3.31628E+03  4.13487E+00 -1.00000E+00  2.60017E-01
      21    -1     0     0   501   511  0.000000000E+00  0.000000000E+00  7.064422420E+00  7.064422420E+00  0.000000000E+00  0.00000E+00  9.000E+00
      -3    -1     0     0     0   501  0.000000000E+00  0.000000000E+00 -6.063909724E+02  6.063909724E+02  0.000000000E+00  0.00000E+00  9.000E+00
      23     2     1     2     0     0  1.906173506E+00 -3.669281622E+00 -6.003176932E+02  6.092033964E+02  1.035873947E+02  0.00000E+00  9.000E+00
      13     1     3     3     0     0  4.673393511E+01 -1.599641907E+01 -1.921938748E+02  1.984400232E+02  1.056583668E-01  0.00000E+00  9.000E+00
     -13     1     3     3     0     0 -4.482776160E+01  1.232713745E+01 -4.081238183E+02  4.107633732E+02  1.056583668E-01  0.00000E+00  9.000E+00
      -3     1     1     2     0   511 -1.906173506E+00  3.669281622E+00  9.911432452E-01  4.251998353E+00  0.000000000E+00  0.00000E+00  9.000E+00
#pdf   3 -3 0.68297175E-03 0.92966050E-01 0.10358739E+03 0.16759941E+01 0.70287030E-01
#rwgt            1           8   192.71759959451950         54217137    18455665           0
</event>
<event>
      6  10013  3.31628E+03  3.62501E+00 -1.00000E+00  2.73850E-01
       2    -1     0     0   511     0  0.000000000E+00  0.000000000E+00  4.585044260E+01  4.585044260E+01  0.000000000E+00  0.00000E+00  9.000E+00
      -2    -1     0     0     0   501  0.000000000E+00  0.000000000E+00 -1.109593308E+01  1.109593308E+01  0.000000000E+00  0.00000E+00  9.000E+00
      23     2     1     2     0     0 -1.016328154E+00  3.479625059E+00  3.109777232E+01  5.179735244E+01  4.126443459E+01  0.00000E+00  9.000E+00
      13     1     3     3     0     0  1.762669033E+01  2.574078494E-02  2.969578853E+00  1.787541431E+01  1.056583668E-01  0.00000E+00  9.000E+00
     -13     1     3     3     0     0 -1.864301848E+01  3.453884274E+00  2.812819347E+01  3.392193813E+01  1.056583668E-01  0.00000E+00  9.000E+00
      21     1     1     2   511   501  1.016328154E+00 -3.479625059E+00  3.656737198E+00  5.149023248E+00  9.424321831E-08  0.00000E+00  9.000E+00
#pdf   2 -2 0.63520846E-02 0.15861667E-02 0.41264435E+02 0.78690445E+00 0.10572957E+01
#rwgt            1           7   1221.9567085310832         54217137    18455728           0
</event>
<event>
      6  10013  3.31628E+03  2.24436E+01 -1.00000E+00  1.62302E-01
       1    -1     0     0   501     0  0.000000000E+00  0.000000000E+00  4.188396393E+00  4.188396393E+00  0.000000000E+00  0.00000E+00  9.000E+00
      -1    -1     0     0     0   511  0.000000000E+00  0.000000000E+00 -8.382888326E+02  8.382888326E+02  0.000000000E+00  0.00000E+00  9.000E+00
      23     2     1     2     0     0  1.776706812E+01  1.371296933E+01 -6.328498708E+02  6.399790702E+02  9.257719528E+01  0.00000E+00  9.000E+00
      13     1     3     3     0     0 -2.758716660E+01  3.136690740E+01 -1.944687156E+02  1.989045680E+02  1.056583668E-01  0.00000E+00  9.000E+00
     -13     1     3     3     0     0  4.535423473E+01 -1.765393806E+01 -4.383811552E+02  4.410745022E+02  1.056583668E-01  0.00000E+00  9.000E+00
      21     1     1     2   501   511 -1.776706812E+01 -1.371296933E+01 -2.012505654E+02  2.024981588E+02  2.697398305E-06  0.00000E+00  9.000E+00
#pdf   1 -1 0.53296173E-03 0.95153618E-01 0.92577195E+02 0.18926507E+01 0.12111738E+00
#rwgt            1           6   337.98745093391665         54217137    18455806           0
</event>
<event>
      6  10013  3.31628E+03  1.00479E+01 -1.00000E+00  1.95459E-01
       1    -1     0     0   501     0  0.000000000E+00  0.000000000E+00  3.050288403E+01  3.050288403E+01  0.000000000E+00  0.00000E+00  9.000E+00
      21    -1     0     0   511   501  0.000000000E+00  0.000000000E+00 -1.090420758E+02  1.090420758E+02  0.000000000E+00  0.00000E+00  9.000E+00
      23     2     1     2     0     0 -3.838316754E+00 -9.285870380E+00 -3.989201307E+01  9.961296156E+01  9.072160349E+01  0.00000E+00  9.000E+00
      13     1     3     3     0     0 -3.956396345E+01  2.045215461E+01 -2.324497569E+01  5.023880861E+01  1.056583668E-01  0.00000E+00  9.000E+00
     -13     1     3     3     0     0  3.572564669E+01 -2.973802499E+01 -1.664703737E+01  4.937415295E+01  1.056583668E-01  0.00000E+00  9.000E+00
       1     1     1     2   511     0  3.838316754E+00  9.285870380E+00 -3.864717869E+01  3.993199826E+01  0.000000000E+00  0.00000E+00  9.000E+00
#pdf   1 -1 0.45659996E-02 0.10665933E-01 0.90721603E+02 0.87148979E+00 0.52413781E+00
#rwgt            1           6   522.36049361338769         54217137    18455833           0
</event>
<event>
      6  10013  3.31628E+03  4.35274E+00 -1.00000E+00  2.55010E-01
       1    -1     0     0   511     0  0.000000000E+00  0.000000000E+00  1.559542751E+00  1.559542751E+00  0.000000000E+00  0.00000E+00  9.000E+00
      -1    -1     0     0     0   501  0.000000000E+00  0.000000000E+00 -1.577078420E+03  1.577078420E+03  0.000000000E+00  0.00000E+00  9.000E+00
      23     2     1     2     0     0  2.461106463E+00  3.590173220E+00 -1.554344162E+03  1.557020494E+03  9.114877083E+01  0.00000E+00  9.000E+00
      13     1     3     3     0     0 -2.572272778E+01 -3.103574843E+01 -1.026638283E+03  1.027429341E+03  1.056583668E-01  0.00000E+00  9.000E+00
     -13     1     3     3     0     0  2.818383424E+01  3.462592165E+01 -5.277058795E+02  5.295911531E+02  1.056583668E-01  0.00000E+00  9.000E+00
      21     1     1     2   511   501 -2.461106463E+00 -3.590173220E+00 -2.117471490E+01  2.161746840E+01  5.331201500E-07  0.00000E+00  9.000E+00
#pdf   1 -1 0.20563735E-03 0.23906331E+00 0.91148771E+02 0.26570027E+01 0.21434208E-01
#rwgt            1           6   140.77982998724980         54217137    18455910           0
</event>
<event>
      6  10013  3.31628E+03  2.30794E+01 -1.00000E+00  1.61357E-01
      -3    -1     0     0     0   501  0.000000000E+00  0.000000000E+00  6.938900656E+01  6.938900656E+01  0.000000000E+00  0.00000E+00  9.000E+00
       3    -1     0     0   511     0  0.000000000E+00  0.000000000E+00 -4.984146529E+01  4.984146529E+01  0.000000000E+00  0.00000E+00  9.000E+00
      23     2     1     2     0     0 -5.479506880E+00 -2.241950554E+01  2.106158174E+01  9.610145235E+01  9.088035924E+01  0.00000E+00  9.000E+00
      13     1     3     3     0     0 -4.369943375E+01  5.297091118E+00 -9.061511556E-01  4.402876285E+01  1.056583668E-01  0.00000E+00  9.000E+00
     -13     1     3     3     0     0  3.821992687E+01 -2.771659666E+01  2.196773290E+01  5.207268951E+01  1.056583668E-01  0.00000E+00  9.000E+00
      21     1     1     2   511   501  5.479506880E+00  2.241950554E+01 -1.514040467E+00  2.312901949E+01  9.424321831E-08  0.00000E+00  9.000E+00
#pdf  -3  3 0.87352623E-02 0.55947079E-02 0.90880359E+02 0.52628800E+00 0.66136235E+00
#rwgt            1           3   532.94844338179291         54217137    18455986           0
</event>
<event>
      6  10013  3.31628E+03  6.90855E+00 -1.00000E+00  2.16292E-01
       2    -1     0     0   501     0  0.000000000E+00  0.000000000E+00  1.191138405E+01  1.191138405E+01  0.000000000E+00  0.00000E+00  9.000E+00
      -2    -1     0     0     0   511  0.000000000E+00  0.000000000E+00 -8.633190733E+01  8.633190733E+01  0.000000000E+00  0.00000E+00  9.000E+00
      23     2     1     2     0     0  5.235290680E+00 -4.507743593E+00 -4.298313818E+00  2.778158347E+01  2.656337437E+01  0.00000E+00  9.000E+00
      13     1     3     3     0     0 -1.057307106E+01  1.027260038E+00 -6.771651691E-01  1.064494298E+01  1.056583668E-01  0.00000E+00  9.000E+00
     -13     1     3     3     0     0  1.580836174E+01 -5.535003631E+00 -3.621148648E+00  1.713664049E+01  1.056583668E-01  0.00000E+00  9.000E+00
      21     1     1     2   501   511 -5.235290680E+00  4.507743593E+00 -7.012220947E+01  7.046170791E+01  1.348699152E-06  0.00000E+00  9.000E+00
#pdf   2 -2 0.17482466E-02 0.23882352E-02 0.26563374E+02 0.10269890E+01 0.83584262E+00
#rwgt            1           7   845.45219137245022         54217137    18456036           0
</event>
<event>
      6  10013  3.31628E+03  1.95047E+00 -1.00000E+00  3.68009E-01
      -1    -1     0     0     0   511  0.000000000E+00  0.000000000E+00  5.083033276E+01  5.083033276E+01  0.000000000E+00  0.00000E+00  9.000E+00
       1    -1     0     0   501     0  0.000000000E+00  0.000000000E+00 -5.672958844E+01  5.672958844E+01  0.000000000E+00  0.00000E+00  9.000E+00
      23     2     1     2     0     0  1.932884978E+00 -2.613388028E-01 -2.018093022E+01  9.314567235E+01  9.091227635E+01  0.00000E+00  9.000E+00
      13     1     3     3     0     0  3.129782954E+01  2.148008670E+01 -3.692261707E+01  5.295506655E+01  1.056583668E-01  0.00000E+00  9.000E+00
     -13     1     3     3     0     0 -2.936494456E+01 -2.174142550E+01  1.674168685E+01  4.019060580E+01  1.056583668E-01  0.00000E+00  9.000E+00
      21     1     1     2   501   511 -1.932884978E+00  2.613388028E-01  1.428167454E+01  1.441424885E+01  1.685873940E-07  0.00000E+00  9.000E+00
#pdf  -1  1 0.56113812E-02 0.87154254E-02 0.90912276E+02 0.70853649E+00 0.70473356E+00
#rwgt            1           5   721.16000729493362         54217137    18456077           0
</event>
<event>
      6  10013  3.31628E+03  2.28278E+01 -1.00000E+00  1.61726E-01
      21    -1     0     0   511   501  0.000000000E+00  0.000000000E+00  1.473169249E+02  1.473169249E+02  0.000000000E+00  0.00000E+00  9.000E+00
       4    -1     0     0   501     0  0.000000000E+00  0.000000000E+00 -8.229353676E+00  8.229353676E+00  0.000000000E+00  0.00000E+00  9.000E+00
      23     2     1     2     0     0 -2.280329749E+01 -1.057914344E+00  6.234071104E+01  7.547637094E+01  3.590555332E+01  0.00000E+00  9.000E+00
      13     1     3     3     0     0  1.771186357E+00 -1.504075683E+00  4.577991953E+01  4.583897404E+01  1.056583668E-01  0.00000E+00  9.000E+00
     -13     1     3     3     0     0 -2.457448385E+01  4.461613395E-01  1.656079151E+01  2.963739691E+01  1.056583668E-01  0.00000E+00  9.000E+00
       4     1     1     2   511     0  2.280329749E+01  1.057914344E+00  7.674686015E+01  8.006990760E+01  0.000000000E+00  0.00000E+00  9.000E+00
#pdf  -4  4 0.89463081E-02 0.85269299E-03 0.35905553E+02 0.32638229E+00 0.10054233E+01
#rwgt            1           2   379.84690802917515         54217137    18456358           0
</event>
<event>
      6  10013  3.31628E+03  2.81204E+01 -1.00000E+00  1.54981E-01
      -1    -1     0     0     0   501  0.000000000E+00  0.000000000E+00  4.464477812E+00  4.464477812E+00  0.000000000E+00  0.00000E+00  9.000E+00
      21    -1     0     0   501   511  0.000000000E+00  0.000000000E+00 -9.121657804E+02  9.121657804E+02  0.000000000E+00  0.00000E+00  9.000E+00
      23     2     1     2     0     0  2.784652649E+01  3.915230931E+00 -6.204115421E+02  6.279675406E+02  9.296231697E+01  0.00000E+00  9.000E+00
      13     1     3     3     0     0 -9.727101032E+00  1.160708985E+01 -5.238397271E+02  5.240585959E+02  1.056583668E-01  0.00000E+00  9.000E+00
     -13     1     3     3     0     0  3.757362752E+01 -7.691858918E+00 -9.657181501E+01  1.039089447E+02  1.056583668E-01  0.00000E+00  9.000E+00
      -1     1     1     2     0   511 -2.784652649E+01 -3.915230931E+00 -2.872897604E+02  2.886627176E+02  0.000000000E+00  0.00000E+00  9.000E+00
#pdf  -1  1 0.55633486E-03 0.91915954E-01 0.92962317E+02 0.18320880E+01 0.37276418E+00
#rwgt            1           5   1725.3202583362763         54217137    18456498           0
</event>
<event>
      6  10013  3.31628E+03  1.57190E+00 -1.00000E+00  4.19879E-01
      -2    -1     0     0     0   511  0.000000000E+00  0.000000000E+00  1.846703686E+01  1.846703686E+01  0.000000000E+00  0.00000E+00  9.000E+00
       2    -1     0     0   501     0  0.000000000E+00  0.000000000E+00 -1.121106422E+02  1.121106422E+02  0.000000000E+00  0.00000E+00  9.000E+00
      23     2     1     2     0     0  1.429298097E+00 -6.541889171E-01 -9.535462437E+01  1.282542243E+02  8.575646212E+01  0.00000E+00  9.000E+00
      13     1     3     3     0     0  2.830776245E+01  1.873906399E+01 -8.078427745E+00  3.489633351E+01  1.056583668E-01  0.00000E+00  9.000E+00
     -13     1     3     3     0     0 -2.687846435E+01 -1.939325290E+01 -8.727619663E+01  9.335789075E+01  1.056583668E-01  0.00000E+00  9.000E+00
      21     1     1     2   501   511 -1.429298097E+00  6.541889171E-01  1.711019025E+00  2.323454819E+00  8.429369702E-08  0.00000E+00  9.000E+00
#pdf  -2  2 0.25303134E-02 0.17197792E-01 0.85756462E+02 0.98213874E+00 0.69158191E+00
#rwgt            1           4   715.98961090628131         54217137    18456541           0
</event>
<event>
      6  10013  3.31628E+03  6.12403E+01 -1.00000E+00  1.34203E-01
      21    -1     0     0   511   501  0.000000000E+00  0.000000000E+00  2.434376035E+01  2.434376035E+01  0.000000000E+00  0.00000E+00  9.000E+00
       1    -1     0     0   501     0  0.000000000E+00  0.000000000E+00 -5.122314453E+02  5.122314453E+02  0.000000000E+00  0.00000E+00  9.000E+00
      23     2     1     2     0     0  5.653231790E+01 -2.354714900E+01 -4.425365503E+02  4.603708974E+02  1.111413225E+02  0.00000E+00  9.000E+00
      13     1     3     3     0     0  2.032494794E+01  4.482247533E+01 -1.881318206E+02  1.944627237E+02  1.056583668E-01  0.00000E+00  9.000E+00
     -13     1     3     3     0     0  3.620736995E+01 -6.836962433E+01 -2.544047297E+02  2.659081737E+02  1.056583668E-01  0.00000E+00  9.000E+00
       1     1     1     2   511     0 -5.653231790E+01  2.354714900E+01 -4.535113462E+01  7.620430830E+01  0.000000000E+00  0.00000E+00  9.000E+00
#pdf  -1  1 0.12015427E-02 0.60831037E-01 0.11114132E+03 0.13961740E+01 0.42192147E+00
#rwgt            1           5   894.67190720647477         54217137    18456940           0
</event>
<event>
      6  10013  3.31628E+03  2.79214E+01 -1.00000E+00  1.55202E-01
       1    -1     0     0   511     0  0.000000000E+00  0.000000000E+00  1.211776279E+03  1.211776279E+03  0.000000000E+00  0.00000E+00  9.000E+00
      -1    -1     0     0     0   501  0.000000000E+00  0.000000000E+00 -3.497071541E+00  3.497071541E+00  0.000000000E+00  0.00000E+00  9.000E+00
      23     2     1     2     0     0  2.307698268E+01 -1.571809970E+01  7.690307116E+02  7.751383180E+02  9.301382051E+01  0.00000E+00  9.000E+00
      13     1     3     3     0     0 -6.691950803E+00 -1.380298191E+00  6.821855639E+02  6.822197903E+02  1.056583668E-01  0.00000E+00  9.000E+00
     -13     1     3     3     0     0  2.976893348E+01 -1.433780151E+01  8.684514768E+01  9.291852771E+01  1.056583668E-01  0.00000E+00  9.000E+00
      21     1     1     2   511   501 -2.307698268E+01  1.571809970E+01  4.392484964E+02  4.401350331E+02  0.000000000E+00  0.00000E+00  9.000E+00
#pdf   1 -1 0.11376693E+00 0.44997898E-03 0.93013821E+02 0.34136045E+00 0.19851171E+01
#rwgt            1           6   1218.3025540865306         54217137    18457004           0
</event>
<event>
      6  10013  3.31628E+03  4.68490E+00 -1.00000E+00  2.48184E-01
       2    -1     0     0   501     0  0.000000000E+00  0.000000000E+00  1.816349496E+03  1.816349496E+03  0.000000000E+00  0.00000E+00  9.000E+00
      -2    -1     0     0     0   511  0.000000000E+00  0.000000000E+00 -1.215870353E+00  1.215870353E+00  0.000000000E+00  0.00000E+00  9.000E+00
      23     2     1     2     0     0  4.481519747E+00 -1.365382819E+00  1.784892336E+03  1.786963342E+03  8.588007087E+01  0.00000E+00  9.000E+00
      13     1     3     3     0     0 -1.893927984E+01  2.683722530E+01  3.347512712E+02  3.363589715E+02  1.056583668E-01  0.00000E+00  9.000E+00
     -13     1     3     3     0     0  2.342079959E+01 -2.820260812E+01  1.450141064E+03  1.450604370E+03  1.056583668E-01  0.00000E+00  9.000E+00
      21     1     1     2   501   511 -4.481519747E+00  1.365382819E+00  3.024128977E+01  3.060202438E+01  3.371747881E-07  0.00000E+00  9.000E+00
#pdf   2 -2 0.27435022E+00 0.15907165E-03 0.85880071E+02 0.38421946E+00 0.28510088E+01
#rwgt            1           7   2240.2959786225547         54217137    18457065           0
</event>
<event>
      6  10013  3.31628E+03  5.10153E+01 -1.00000E+00  1.38551E-01
      -1    -1     0     0     0   501  0.000000000E+00  0.000000000E+00  6.157326286E+01  6.157326286E+01  0.000000000E+00  0.00000E+00  9.000E+00
      21    -1     0     0   501   511  0.000000000E+00  0.000000000E+00 -1.327456131E+02  1.327456131E+02  0.000000000E+00  0.00000E+00  9.000E+00
      23     2     1     2     0     0 -4.503934952E+01 -2.395871823E+01 -1.470698838E+01  1.182209110E+02  1.056282401E+02  0.00000E+00  9.000E+00
      13     1     3     3     0     0  9.429630588E+00 -6.787608480E-01 -4.891308433E+01  4.981846677E+01  1.056583668E-01  0.00000E+00  9.000E+00
     -13     1     3     3     0     0 -5.446898011E+01 -2.327995738E+01  3.420609595E+01  6.840244420E+01  1.056583668E-01  0.00000E+00  9.000E+00
      -1     1     1     2     0   511  4.503934952E+01  2.395871823E+01 -5.646536186E+01  7.609796498E+01  0.000000000E+00  0.00000E+00  9.000E+00
#pdf  -1  1 0.71701461E-02 0.92075774E-02 0.10562824E+03 0.64145138E+00 0.69980356E+00
#rwgt            1           5   726.33335669892290         54217137    18457162           0
</event>
<event>
      6  10013  3.31628E+03  4.07970E+01 -1.00000E+00  1.44280E-01
      21    -1     0     0   511   501  0.000000000E+00  0.000000000E+00  1.202075972E+00  1.202075972E+00  0.000000000E+00  0.00000E+00  9.000E+00
       2    -1     0     0   501     0  0.000000000E+00  0.000000000E+00 -2.811751091E+03  2.811751091E+03  0.000000000E+00  0.00000E+00  9.000E+00
      23     2     1     2     0     0  2.185830886E+01  3.444715893E+01 -2.327122206E+03  2.327807959E+03  3.908635695E+01  0.00000E+00  9.000E+00
      13     1     3     3     0     0  5.327773736E+00  3.897659442E+01 -1.592363238E+03  1.592849099E+03  1.056583668E-01  0.00000E+00  9.000E+00
     -13     1     3     3     0     0  1.653053512E+01 -4.529435491E+00 -7.347589679E+02  7.349588604E+02  1.056583668E-01  0.00000E+00  9.000E+00
       2     1     1     2   511     0 -2.185830886E+01 -3.444715893E+01 -4.834268094E+02  4.851452076E+02  0.000000000E+00  0.00000E+00  9.000E+00
#pdf  -2  2 0.36492981E-04 0.24771616E+00 0.39086357E+02 0.37675441E+01 0.45567254E+00
#rwgt            1           4   3350.4053460291052         54217137    18457215           0
</event>
<event>
      6  10013  3.31628E+03  2.61909E+00 -1.00000E+00  3.15832E-01
      -2    -1     0     0     0   511  0.000000000E+00  0.000000000E+00  4.366684776E+01  4.366684776E+01  0.000000000E+00  0.00000E+00  9.000E+00
       2    -1     0     0   501     0  0.000000000E+00  0.000000000E+00 -5.039271000E+01  5.039271000E+01  0.000000000E+00  0.00000E+00  9.000E+00
      23     2     1     2     0     0 -1.742585684E+00 -1.955257327E+00 -7.574790683E+00  9.130632047E+01  9.095387329E+01  0.00000E+00  9.000E+00
      13     1     3     3     0     0  4.016509461E+01 -6.273749865E+00 -2.267951431E+01  4.655068523E+01  1.056583668E-01  0.00000E+00  9.000E+00
     -13     1     3     3     0     0 -4.190768030E+01  4.318492537E+00  1.510472363E+01  4.475563523E+01  1.056583668E-01  0.00000E+00  9.000E+00
      21     1     1     2   501   511  1.742585684E+00  1.955257327E+00  8.489284459E-01  2.753237292E+00  4.942156062E-08  0.00000E+00  9.000E+00
#pdf  -2  2 0.64382182E-02 0.76030877E-02 0.90953873E+02 0.64974687E+00 0.81118688E+00
#rwgt            1           4   549.49583012104677         54217137    18457324           0
</event>
<event>
      6  10013  3.31628E+03  2.77935E+01 -1.00000E+00  1.55344E-01
      21    -1     0     0   511   501  0.000000000E+00  0.000000000E+00  1.031650418E+00  1.031650418E+00  0.000000000E+00  0.00000E+00  9.000E+00
       2    -1     0     0   501     0  0.000000000E+00  0.000000000E+00 -2.956306685E+03  2.956306685E+03  0.000000000E+00  0.00000E+00  9.000E+00
      23     2     1     2     0     0 -5.268058090E+00  2.728965955E+01 -2.534852666E+03  2.535998276E+03  7.096997853E+01  0.00000E+00  9.000E+00
      13     1     3     3     0     0 -2.657119584E+01  2.688801863E+00 -3.967071632E+02  3.976051340E+02  1.056583668E-01  0.00000E+00  9.000E+00
     -13     1     3     3     0     0  2.130313775E+01  2.460085769E+01 -2.138145503E+03  2.138393142E+03  1.056583668E-01  0.00000E+00  9.000E+00
       2     1     1     2   511     0  5.268058090E+00 -2.728965955E+01 -4.204223684E+02  4.213400596E+02  0.000000000E+00  0.00000E+00  9.000E+00
#pdf  -2  2 0.82055790E-04 0.36320633E+00 0.70969979E+02 0.34310180E+01 0.26299560E+00
#rwgt            1           4   7219.8196107752365         54217137    18457569           0
</event>
<event>
      6  10013  3.31628E+03  2.93539E+00 -1.00000E+00  2.99625E-01
       2    -1     0     0   511     0  0.000000000E+00  0.000000000E+00  1.396907764E+03  1.396907764E+03  0.000000000E+00  0.00000E+00  9.000E+00
      -2    -1     0     0     0   501  0.000000000E+00  0.000000000E+00 -1.361956968E-01  1.361956968E-01  0.000000000E+00  0.00000E+00  9.000E+00
      23     2     1     2     0     0 -6.847792600E-01  2.854396815E+00  1.061397933E+03  1.061657479E+03  2.328976178E+01  0.00000E+00  9.000E+00
      13     1     3     3     0     0  1.716687022E+00 -6.842587170E+00  8.446081900E+02  8.446376583E+02  1.056583668E-01  0.00000E+00  9.000E+00
     -13     1     3     3     0     0 -2.401466282E+00  9.696983985E+00  2.167897431E+02  2.170198204E+02  1.056583668E-01  0.00000E+00  9.000E+00
      21     1     1     2   511   501  6.847792600E-01 -2.854396815E+00  3.353736354E+02  3.353864813E+02  0.000000000E+00  0.00000E+00  9.000E+00
#pdf   2 -2 0.16203006E+00 0.19808327E-04 0.23289762E+02 0.58411578E+00 0.37733265E+01
#rwgt            1           7   2829.1106659162156         54217137    18457613           0
</event>
<event>
      6  10013  3.31628E+03  2.48589E+00 -1.00000E+00  3.23894E-01
       2    -1     0     0   511     0  0.000000000E+00  0.000000000E+00  1.043631344E+02  1.043631344E+02  0.000000000E+00  0.00000E+00  9.000E+00
      -2    -1     0     0     0   501  0.000000000E+00  0.000000000E+00 -2.818571523E+01  2.818571523E+01  0.000000000E+00  0.00000E+00  9.000E+00
      23     2     1     2     0     0 -3.728155509E-01 -2.457774434E+00  4.471796104E+01  1.009913283E+02  9.051725088E+01  0.00000E+00  9.000E+00
      13     1     3     3     0     0 -2.536865930E+01  1.159784267E+01 -1.718891196E+01  3.276505283E+01  1.056583668E-01  0.00000E+00  9.000E+00
     -13     1     3     3     0     0  2.499584375E+01 -1.405561710E+01  6.190687300E+01  6.822627548E+01  1.056583668E-01  0.00000E+00  9.000E+00
      21     1     1     2   511   501  3.728155509E-01  2.457774434E+00  3.145945809E+01  3.155752129E+01  3.371747881E-07  0.00000E+00  9.000E+00
#pdf   2 -2 0.11204182E-01 0.43270891E-02 0.90517251E+02 0.74517534E+00 0.78142132E+00
#rwgt            1           7   489.65163026893873         54217137    18457709           0
</event>
<event>
      6  10013 -3.31628E+03  7.22773E+00 -1.00000E+00  2.13537E-01
      -5    -1     0     0     0   501  0.000000000E+00  0.000000000E+00  5.643135566E+01  5.643135566E+01  0.000000000E+00  0.00000E+00  9.000E+00
      21    -1     0     0   501   511  0.000000000E+00  0.000000000E+00 -4.170990722E+00  4.170990722E+00  0.000000000E+00  0.00000E+00  9.000E+00
      23     2     1     2     0     0  1.298863483E+00 -7.110062203E+00  3.737737380E+01  4.405715203E+01  2.217486284E+01  0.00000E+00  9.000E+00
      13     1     3     3     0     0  4.023262551E+00 -2.627713704E+00  3.841042264E+01  3.870998905E+01  1.056583668E-01  0.00000E+00  9.000E+00
     -13     1     3     3     0     0 -2.724399068E+00 -4.482348500E+00 -1.033048844E+00  5.347162982E+00  1.056583668E-01  0.00000E+00  9.000E+00
      -5     1     1     2     0   511 -1.298863483E+00  7.110062203E+00  1.488299114E+01  1.654519435E+01  0.000000000E+00  0.00000E+00  9.000E+00
#pdf  -5  5 0.59558103E-02 0.48853347E-03 0.22174863E+02 0.19027109E+00 0.64027093E+00
#rwgt            1           1  -238.60778633708324         54217137    18457834           0
</event>
<event>
      6  10013  3.31628E+03  9.12035E+00 -1.00000E+00  2.00435E-01
      -4    -1     0     0     0   501  0.000000000E+00  0.000000000E+00  4.367775044E+01  4.367775044E+01  0.000000000E+00  0.00000E+00  9.000E+00
      21    -1     0     0   501   511  0.000000000E+00  0.000000000E+00 -6.683788474E+00  6.683788474E+00  0.000000000E+00  0.00000E+00  9.000E+00
      23     2     1     2     0     0 -5.139607297E+00 -7.534273668E+00  2.700348366E+01  3.683414081E+01  2.333205855E+01  0.00000E+00  9.000E+00
      13     1     3     3     0     0  3.733621586E+00  5.446662176E+00  1.343587877E+00  6.739618021E+00  1.056583668E-01  0.00000E+00  9.000E+00
     -13     1     3     3     0     0 -8.873228882E+00 -1.298093584E+01  2.565989579E+01  3.009452278E+01  1.056583668E-01  0.00000E+00  9.000E+00
      -4     1     1     2     0   511  5.139607297E+00  7.534273668E+00  9.990478303E+00  1.352739811E+01  0.000000000E+00  0.00000E+00  9.000E+00
#pdf  -4  4 0.45735854E-02 0.70430800E-03 0.23332059E+02 0.42871532E+00 0.94556297E+00
#rwgt            1           2   477.29127408252305         54217137    18458067           0
</event>
<event>
      6  10013  3.31628E+03  2.28335E+01 -1.00000E+00  1.61718E-01
       4    -1     0     0   501     0  0.000000000E+00  0.000000000E+00  2.551806077E+00  2.551806077E+00  0.000000000E+00  0.00000E+00  9.000E+00
      21    -1     0     0   511   501  0.000000000E+00  0.000000000E+00 -3.114219597E+02  3.114219597E+02  0.000000000E+00  0.00000E+00  9.000E+00
      23     2     1     2     0     0  2.282689342E+01  5.500028883E-01 -1.725371332E+02  1.757418518E+02  2.438783707E+01  0.00000E+00  9.000E+00
      13     1     3     3     0     0  1.142969883E+01 -1.094002062E+01 -6.018096182E+01  6.222605078E+01  1.056583668E-01  0.00000E+00  9.000E+00
     -13     1     3     3     0     0  1.139719459E+01  1.149002350E+01 -1.123561713E+02  1.135158011E+02  1.056583668E-01  0.00000E+00  9.000E+00
       4     1     1     2   511     0 -2.282689342E+01 -5.500028883E-01 -1.363330204E+02  1.382319139E+02  0.000000000E+00  0.00000E+00  9.000E+00
#pdf   4 -4 0.17995390E-03 0.19556837E-01 0.24387837E+02 0.15560839E+01 0.17976529E+00
#rwgt            1           9   332.68430732244587         54217137    18458111           0
</event>
<event>
      6  10013  3.31628E+03  1.10135E+00 -1.00000E+00  5.85137E-01
      -2    -1     0     0     0   511  0.000000000E+00  0.000000000E+00  1.369176397E+00  1.369176397E+00  0.000000000E+00  0.00000E+00  9.000E+00
       2    -1     0     0   501     0  0.000000000E+00  0.000000000E+00 -3.765336341E+02  3.765336341E+02  0.000000000E+00  0.00000E+00  9.000E+00
      23     2     1     2     0     0 -4.438581472E-02  1.100451041E+00 -3.758513681E+02  3.766048087E+02  2.378482859E+01  0.00000E+00  9.000E+00
      13     1     3     3     0     0 -6.515676717E+00  9.290020241E+00 -2.704173651E+02  2.706553547E+02  1.056583668E-01  0.00000E+00  9.000E+00
     -13     1     3     3     0     0  6.471290903E+00 -8.189569200E+00 -1.054340031E+02  1.059494540E+02  1.056583668E-01  0.00000E+00  9.000E+00
      21     1     1     2   501   511  4.438581472E-02 -1.100451041E+00  6.869104410E-01  1.298001752E+00  1.425379997E-07  0.00000E+00  9.000E+00
#pdf  -2  2 0.57894936E-04 0.57819292E-01 0.23784829E+02 0.27640628E+01 0.62770402E+00
#rwgt            1           4   1801.4053237755381         54217137    18458181           0
</event>
<event>
      6  10013  3.31628E+03  5.62678E+00 -1.00000E+00  2.29811E-01
       1    -1     0     0   501     0  0.000000000E+00  0.000000000E+00  3.842201307E+00  3.842201307E+00  0.000000000E+00  0.00000E+00  9.000E+00
      21    -1     0     0   511   501  0.000000000E+00  0.000000000E+00 -1.896079421E+02  1.896079421E+02  0.000000000E+00  0.00000E+00  9.000E+00
      23     2     1     2     0     0 -2.741031789E+00  4.913996142E+00 -1.849679602E+02  1.877670926E+02  3.180682506E+01  0.00000E+00  9.000E+00
      13     1     3     3     0     0  5.379892932E+00 -1.135983472E+01 -1.054001875E+02  1.061470668E+02  1.056583668E-01  0.00000E+00  9.000E+00
     -13     1     3     3     0     0 -8.120924721E+00  1.627383087E+01 -7.956777270E+01  8.162002576E+01  1.056583668E-01  0.00000E+00  9.000E+00
       1     1     1     2   511     0  2.741031789E+00 -4.913996142E+00 -7.977805805E-01  5.683050872E+00  0.000000000E+00  0.00000E+00  9.000E+00
#pdf   1 -1 0.21202573E-03 0.28233542E-01 0.31806825E+02 0.20352442E+01 0.30149273E+00
#rwgt            1           6   201.70397647242169         54217137    18458484           0
</event>
<event>
      6  10013  3.31628E+03  2.16437E+00 -1.00000E+00  3.47593E-01
       2    -1     0     0   511     0  0.000000000E+00  0.000000000E+00  2.315126833E+03  2.315126833E+03  0.000000000E+00  0.00000E+00  9.000E+00
      -2    -1     0     0     0   501  0.000000000E+00  0.000000000E+00 -9.991336819E-01  9.991336819E-01  0.000000000E+00  0.00000E+00  9.000E+00
      23     2     1     2     0     0  6.134818814E-01 -2.075600276E+00  2.156891931E+03  2.158875303E+03  9.249370910E+01  0.00000E+00  9.000E+00
      13     1     3     3     0     0  1.274673510E+01  4.061852900E+01  6.900147685E+02  6.913267939E+02  1.056583668E-01  0.00000E+00  9.000E+00
     -13     1     3     3     0     0 -1.213325322E+01 -4.269412928E+01  1.466877162E+03  1.467548509E+03  1.056583668E-01  0.00000E+00  9.000E+00
      21     1     1     2   511   501 -6.134818814E-01  2.075600276E+00  1.572357682E+02  1.572506639E+02  1.907348633E-06  0.00000E+00  9.000E+00
#pdf   2 -2 0.33189124E+00 0.15252530E-03 0.92493709E+02 0.29720730E+00 0.29426589E+01
#rwgt            1           7   1156.8986477797994         54217137    18458511           0
</event>
<event>
      6  10013  3.31628E+03  4.30430E+01 -1.00000E+00  1.42862E-01
      -2    -1     0     0     0   511  0.000000000E+00  0.000000000E+00  6.704038563E+00  6.704038563E+00  0.000000000E+00  0.00000E+00  9.000E+00
       2    -1     0     0   501     0  0.000000000E+00  0.000000000E+00 -1.125764153E+03  1.125764153E+03  0.000000000E+00  0.00000E+00  9.000E+00
      23     2     1     2     0     0 -4.128064062E+01  1.219033743E+01 -1.012951804E+03  1.017961995E+03  9.122811772E+01  0.00000E+00  9.000E+00
      13     1     3     3     0     0 -8.583980720E+00  2.151191134E+01 -5.869391020E+01  6.309859992E+01  1.056583668E-01  0.00000E+00  9.000E+00
     -13     1     3     3     0     0 -3.269665990E+01 -9.321573903E+00 -9.542578938E+02  9.548633946E+02  1.056583668E-01  0.00000E+00  9.000E+00
      21     1     1     2   501   511  4.128064062E+01 -1.219033743E+01 -1.061083106E+02  1.145061972E+02  0.000000000E+00  0.00000E+00  9.000E+00
#pdf  -2  2 0.34855132E-03 0.14128758E+00 0.91228118E+02 0.21699284E+01 0.56401793E+00
#rwgt            1           4   1355.5321487169124         54217137    18458677           0
</event>
<event>
      6  10013  3.31628E+03  3.29565E+01 -1.00000E+00  1.50224E-01
      -1    -1     0     0     0   511  0.000000000E+00  0.000000000E+00  4.519109007E+02  4.519109007E+02  0.000000000E+00  0.00000E+00  9.000E+00
       1    -1     0     0   501     0  0.000000000E+00  0.000000000E+00 -9.867790979E+00  9.867790979E+00  0.000000000E+00  0.00000E+00  9.000E+00
      23     2     1     2     0     0 -3.079130700E+01 -1.174846396E+01  2.865954268E+02  3.028758499E+02  9.225351382E+01  0.00000E+00  9.000E+00
      13     1     3     3     0     0 -4.629508893E+01 -9.109310220E+00  6.290755622E+01  7.863578438E+01  1.056583668E-01  0.00000E+00  9.000E+00
     -13     1     3     3     0     0  1.550378193E+01 -2.639153743E+00  2.236878706E+02  2.242400656E+02  1.056583668E-01  0.00000E+00  9.000E+00
      21     1     1     2   501   511  3.079130700E+01  1.174846396E+01  1.554476829E+02  1.589028418E+02  2.697398305E-06  0.00000E+00  9.000E+00
#pdf  -1  1 0.42701000E-01 0.11793456E-02 0.92253514E+02 0.23919585E+00 0.14160218E+01
#rwgt            1           5   552.25766018954880         54217137    18458725           0
</event>
<event>
      6  10013  3.31628E+03  2.17619E+00 -1.00000E+00  3.46590E-01
      -2    -1     0     0     0   501  0.000000000E+00  0.000000000E+00  6.893258913E+01  6.893258913E+01  0.000000000E+00  0.00000E+00  9.000E+00
       2    -1     0     0   511     0  0.000000000E+00  0.000000000E+00 -3.259130624E+01  3.259130624E+01  0.000000000E+00  0.00000E+00  9.000E+00
      23     2     1     2     0     0 -2.086852099E+00 -6.171454035E-01  3.802738665E+01  9.877093951E+01  9.113111728E+01  0.00000E+00  9.000E+00
      13     1     3     3     0     0  5.097928463E-01 -3.617525741E+01 -1.130463444E+01  3.790402434E+01  1.056583668E-01  0.00000E+00  9.000E+00
     -13     1     3     3     0     0 -2.596644945E+00  3.555811201E+01  4.933202109E+01  6.086691517E+01  1.056583668E-01  0.00000E+00  9.000E+00
      21     1     1     2   511   501  2.086852099E+00  6.171454035E-01 -1.686103755E+00  2.752955867E+00  2.107342426E-08  0.00000E+00  9.000E+00
#pdf  -2  2 0.10519949E-01 0.46712493E-02 0.91131117E+02 0.50836387E+00 0.92234145E+00
#rwgt            1           4   569.74461350178842         54217137    18458752           0
</event>
<event>
      6  10013  3.31628E+03  2.79594E+00 -1.00000E+00  3.06322E-01
       4    -1     0     0   511     0  0.000000000E+00  0.000000000E+00  1.760093120E+03  1.760093120E+03  0.000000000E+00  0.00000E+00  9.000E+00
      -4    -1     0     0     0   501  0.000000000E+00  0.000000000E+00 -3.374435358E+00  3.374435358E+00  0.000000000E+00  0.00000E+00  9.000E+00
      23     2     1     2     0     0  1.587929053E+00  2.301246460E+00  6.121476331E+02  6.188930889E+02  9.108300345E+01  0.00000E+00  9.000E+00
      13     1     3     3     0     0 -9.479139185E+00  3.166725258E+01  9.128128412E+01  9.708219693E+01  1.056583668E-01  0.00000E+00  9.000E+00
     -13     1     3     3     0     0  1.106706824E+01 -2.936600612E+01  5.208663489E+02  5.218108919E+02  1.056583668E-01  0.00000E+00  9.000E+00
      21     1     1     2   511   501 -1.587929053E+00 -2.301246460E+00  1.144571051E+03  1.144574466E+03  0.000000000E+00  0.00000E+00  9.000E+00
#pdf   4 -4 0.94650857E-01 0.51863692E-03 0.91083003E+02 0.35346790E-01 0.15573139E+01
#rwgt            1           9   53.551753017374914         54217137    18459162           0
</event>
<event>
      6  10013  3.31628E+03  5.03034E+01 -1.00000E+00  1.38897E-01
      21    -1     0     0   511   501  0.000000000E+00  0.000000000E+00  1.990558742E+01  1.990558742E+01  0.000000000E+00  0.00000E+00  9.000E+00
       1    -1     0     0   501     0  0.000000000E+00  0.000000000E+00 -3.277375799E+02  3.277375799E+02  0.000000000E+00  0.00000E+00  9.000E+00
      23     2     1     2     0     0  3.276823668E+01 -3.816642047E+01 -1.517482581E+02  1.836536399E+02  9.039188351E+01  0.00000E+00  9.000E+00
      13     1     3     3     0     0  2.587165302E+01 -4.113768735E+01 -2.141833633E+01  5.310751402E+01  1.056583668E-01  0.00000E+00  9.000E+00
     -13     1     3     3     0     0  6.896583659E+00  2.971266887E+00 -1.303299218E+02  1.305461259E+02  1.056583668E-01  0.00000E+00  9.000E+00
       1     1     1     2   511     0 -3.276823668E+01  3.816642047E+01 -1.560837344E+02  1.639895275E+02  0.000000000E+00  0.00000E+00  9.000E+00
#pdf  -1  1 0.21445457E-02 0.22544306E-01 0.90391884E+02 0.10708967E+01 0.53821417E+00
#rwgt            1           5   605.73006095603569         54217137    18459463           0
</event>
<event>
      6  10013  3.31628E+03  1.18750E+01 -1.00000E+00  1.87454E-01
      21    -1     0     0   511   501  0.000000000E+00  0.000000000E+00  1.628113007E+01  1.628113007E+01  0.000000000E+00  0.00000E+00  9.000E+00
       2    -1     0     0   501     0  0.000000000E+00  0.000000000E+00 -5.760876977E+02  5.760876977E+02  0.000000000E+00  0.00000E+00  9.000E+00
      23     2     1     2     0     0  2.538701652E+00  1.160044724E+01 -5.696486538E+02  5.769454027E+02  9.069395559E+01  0.00000E+00  9.000E+00
      13     1     3     3     0     0  4.048183989E+01  2.240755680E+01 -4.050720996E+02  4.077061381E+02  1.056583668E-01  0.00000E+00  9.000E+00
     -13     1     3     3     0     0 -3.794313824E+01 -1.080710956E+01 -1.645765541E+02  1.692392646E+02  1.056583668E-01  0.00000E+00  9.000E+00
       2     1     1     2   511     0 -2.538701652E+00 -1.160044724E+01  9.842086115E+00  1.542342509E+01  0.000000000E+00  0.00000E+00  9.000E+00
#pdf  -2  2 0.55653803E-03 0.87453085E-01 0.90693956E+02 0.18172945E+01 0.61136352E+00
#rwgt            1           4   1334.3032494501128         54217137    18459502           0
</event>
<event>
      6  10013  3.31628E+03  2.30599E+01 -1.00000E+00  1.61385E-01
      -1    -1     0     0     0   501  0.000000000E+00  0.000000000E+00  1.306852282E+03  1.306852282E+03  0.000000000E+00  0.00000E+00  9.000E+00
      21    -1     0     0   501   511  0.000000000E+00  0.000000000E+00 -1.239605041E+01  1.239605041E+01  0.000000000E+00  0.00000E+00  9.000E+00
      23     2     1     2     0     0 -2.132488561E+01 -8.775469771E+00  1.290509648E+03  1.295853138E+03  1.152755123E+02  0.00000E+00  9.000E+00
      13     1     3     3     0     0 -3.735541738E-01 -4.892549121E+01  2.739260183E+02  2.782612404E+02  1.056583668E-01  0.00000E+00  9.000E+00
     -13     1     3     3     0     0 -2.095133144E+01  4.015002144E+01  1.016583630E+03  1.017591898E+03  1.056583668E-01  0.00000E+00  9.000E+00
      -1     1     1     2     0   511  2.132488561E+01  8.775469771E+00  3.946583872E+00  2.339519481E+01  0.000000000E+00  0.00000E+00  9.000E+00
#pdf  -1  1 0.19508592E+00 0.40305237E-03 0.11527551E+03 0.36885157E-01 0.21815745E+01
#rwgt            1           5   250.94561686853143         54217137    18459595           0
</event>
<event>
      6  10013  3.31628E+03  2.76333E+01 -1.00000E+00  1.55524E-01
       2    -1     0     0   511     0  0.000000000E+00  0.000000000E+00  1.482753446E+03  1.482753446E+03  0.000000000E+00  0.00000E+00  9.000E+00
      -2    -1     0     0     0   501  0.000000000E+00  0.000000000E+00 -3.022896850E+00  3.022896850E+00  0.000000000E+00  0.00000E+00  9.000E+00
      23     2     1     2     0     0 -2.760879315E+01  1.163001168E+00  9.862100584E+02  9.914828341E+02  9.830733919E+01  0.00000E+00  9.000E+00
      13     1     3     3     0     0 -1.500121157E+01  1.867756359E+01  9.418233547E+02  9.421279798E+02  1.056583668E-01  0.00000E+00  9.000E+00
     -13     1     3     3     0     0 -1.260758159E+01 -1.751456242E+01  4.438670378E+01  4.935485434E+01  1.056583668E-01  0.00000E+00  9.000E+00
      21     1     1     2   511   501  2.760879315E+01 -1.163001168E+00  4.935204905E+02  4.942935085E+02  5.394796609E-06  0.00000E+00  9.000E+00
#pdf   2 -2 0.14645438E+00 0.39046563E-03 0.98307339E+02 0.55638338E+00 0.21101495E+01
#rwgt            1           7   2169.6760243787094         54217137    18459660           0
</event>
<event>
      6  10013  3.31628E+03  1.18780E+01 -1.00000E+00  1.87443E-01
       2    -1     0     0   501     0  0.000000000E+00  0.000000000E+00  3.989740284E+01  3.989740284E+01  0.000000000E+00  0.00000E+00  9.000E+00
      21    -1     0     0   511   501  0.000000000E+00  0.000000000E+00 -1.811175210E+01  1.811175210E+01  0.000000000E+00  0.00000E+00  9.000E+00
      23     2     1     2     0     0  1.080296931E+01 -4.937830941E+00  3.011223555E+01  4.350335145E+01  2.906386997E+01  0.00000E+00  9.000E+00
      13     1     3     3     0     0  1.881438564E+01 -9.571239372E+00  2.567686412E+01  3.324006987E+01  1.056583668E-01  0.00000E+00  9.000E+00
     -13     1     3     3     0     0 -8.011416337E+00  4.633408431E+00  4.435371432E+00  1.026328158E+01  1.056583668E-01  0.00000E+00  9.000E+00
       2     1     1     2   511     0 -1.080296931E+01  4.937830941E+00 -8.326584813E+00  1.450580349E+01  0.000000000E+00  0.00000E+00  9.000E+00
#pdf   2 -2 0.52418742E-02 0.95352829E-03 0.29063870E+02 0.78760128E+00 0.11847197E+01
#rwgt            1           7   1103.7444274084603         54217137    18459691           0
</event>
<event>
      6  10013  3.31628E+03  5.57442E+00 -1.00000E+00  2.30469E-01
      -4    -1     0     0     0   501  0.000000000E+00  0.000000000E+00  2.528877914E+01  2.528877914E+01  0.000000000E+00  0.00000E+00  9.000E+00
      21    -1     0     0   501   511  0.000000000E+00  0.000000000E+00 -7.120575114E+00  7.120575114E+00  0.000000000E+00  0.00000E+00  9.000E+00
      23     2     1     2     0     0  1.823645398E+00 -5.267685153E+00  1.366412443E+01  2.524270075E+01  2.047953748E+01  0.00000E+00  9.000E+00
      13     1     3     3     0     0  8.145621488E+00  3.534820859E+00  1.596301195E+00  9.022496835E+00  1.056583668E-01  0.00000E+00  9.000E+00
     -13     1     3     3     0     0 -6.321976091E+00 -8.802506013E+00  1.206782324E+01  1.622020392E+01  1.056583668E-01  0.00000E+00  9.000E+00
      -4     1     1     2     0   511 -1.823645398E+00  5.267685153E+00  4.504079596E+00  7.166653502E+00  0.000000000E+00  0.00000E+00  9.000E+00
#pdf  -4  4 0.28877667E-02 0.85939234E-03 0.20479537E+02 0.51288073E+00 0.83866527E+00
#rwgt            1           2   435.88806201610100         54217137    18459741           0
</event>
<event>
      6  10013 -3.31628E+03  2.92167E+01 -1.00000E+00  1.53807E-01
      -5    -1     0     0     0   501  0.000000000E+00  0.000000000E+00  2.314008053E+00  2.314008053E+00  0.000000000E+00  0.00000E+00  9.000E+00
      21    -1     0     0   501   511  0.000000000E+00  0.000000000E+00 -7.652474891E+02  7.652474891E+02  0.000000000E+00  0.00000E+00  9.000E+00
      23     2     1     2     0     0  2.667967741E+01  1.190852057E+01 -5.351447917E+02  5.379067453E+02  4.593583045E+01  0.00000E+00  9.000E+00
      13     1     3     3     0     0 -6.220290609E+00  2.306248015E+00 -1.260830116E+01  1.424749863E+01  1.056583668E-01  0.00000E+00  9.000E+00
     -13     1     3     3     0     0  3.289996802E+01  9.602272558E+00 -5.225364906E+02  5.236592467E+02  1.056583668E-01  0.00000E+00  9.000E+00
      -5     1     1     2     0   511 -2.667967741E+01 -1.190852057E+01 -2.277886893E+02  2.296547518E+02  0.000000000E+00  0.00000E+00  9.000E+00
#pdf  -5  5 0.17926938E-03 0.69648268E-01 0.45935830E+02 0.14134827E+01 0.27238765E-01
#rwgt            1           1  -78.958367431060950         54217137    18459848           0
</event>
<event>
      6  10013  3.31628E+03  2.63089E+01 -1.00000E+00  1.57072E-01
      -1    -1     0     0     0   511  0.000000000E+00  0.000000000E+00  1.683221230E+01  1.683221230E+01  0.000000000E+00  0.00000E+00  9.000E+00
       1    -1     0     0   501     0  0.000000000E+00  0.000000000E+00 -2.397660692E+02  2.397660692E+02  0.000000000E+00  0.00000E+00  9.000E+00
      23     2     1     2     0     0 -7.329959517E+00 -2.526719875E+01 -1.875538198E+02  2.125085246E+02  9.639127588E+01  0.00000E+00  9.000E+00
      13     1     3     3     0     0  1.970611908E+01  3.088825267E+01 -8.404855578E+01  9.168743739E+01  1.056583668E-01  0.00000E+00  9.000E+00
     -13     1     3     3     0     0 -2.703607860E+01 -5.615545143E+01 -1.035052640E+02  1.208210872E+02  1.056583668E-01  0.00000E+00  9.000E+00
      21     1     1     2   501   511  7.329959517E+00  2.526719875E+01 -3.538003711E+01  4.408975692E+01  0.000000000E+00  0.00000E+00  9.000E+00
#pdf  -1  1 0.18518541E-02 0.29688072E-01 0.96391276E+02 0.11474199E+01 0.50358403E+00
#rwgt            1           5   823.91320817928136         54217137    18459952           0
</event>
<event>
      6  10013  3.31628E+03  4.72419E+01 -1.00000E+00  1.40467E-01
       2    -1     0     0   501     0  0.000000000E+00  0.000000000E+00  1.029293686E+03  1.029293686E+03  0.000000000E+00  0.00000E+00  9.000E+00
      21    -1     0     0   511   501  0.000000000E+00  0.000000000E+00 -1.540655463E+01  1.540655463E+01  0.000000000E+00  0.00000E+00  9.000E+00
      23     2     1     2     0     0  1.768872950E+01  4.380530189E+01  9.824489135E+02  9.879538118E+02  9.281740656E+01  0.00000E+00  9.000E+00
      13     1     3     3     0     0 -3.497487302E+01  2.912406483E+01  3.152220554E+02  3.184908292E+02  1.056583668E-01  0.00000E+00  9.000E+00
     -13     1     3     3     0     0  5.266360252E+01  1.468123706E+01  6.672268581E+02  6.694629826E+02  1.056583668E-01  0.00000E+00  9.000E+00
       2     1     1     2   511     0 -1.768872950E+01 -4.380530189E+01  3.143821750E+01  5.674642847E+01  0.000000000E+00  0.00000E+00  9.000E+00
#pdf   2 -2 0.13507934E+00 0.37738378E-03 0.92817407E+02 0.57018478E+00 0.21137674E+01
#rwgt            1           7   1204.7397835250613         54217137    18460057           0
</event>
<event>
      6  10013  3.31628E+03  1.68219E+00 -1.00000E+00  4.01949E-01
       2    -1     0     0   501     0  0.000000000E+00  0.000000000E+00  1.279554673E+02  1.279554673E+02  0.000000000E+00  0.00000E+00  9.000E+00
      21    -1     0     0   511   501  0.000000000E+00  0.000000000E+00 -1.886917770E+01  1.886917770E+01  0.000000000E+00  0.00000E+00  9.000E+00
      23     2     1     2     0     0  1.341444256E+00  1.015028775E+00  9.746561364E+01  1.350828451E+02  9.351470168E+01  0.00000E+00  9.000E+00
      13     1     3     3     0     0 -3.483260804E+01 -1.264543431E+00  9.205796325E+01  9.843571209E+01  1.056583668E-01  0.00000E+00  9.000E+00
     -13     1     3     3     0     0  3.617405229E+01  2.279572205E+00  5.407650396E+00  3.664713298E+01  1.056583668E-01  0.00000E+00  9.000E+00
       2     1     1     2   511     0 -1.341444256E+00 -1.015028775E+00  1.162067599E+01  1.174179997E+01  0.000000000E+00  0.00000E+00  9.000E+00
#pdf   2 -2 0.17885449E-01 0.28931651E-02 0.93514702E+02 0.69037870E+00 0.93748804E+00
#rwgt            1           7   782.37909084688545         54217137    18460094           0
</event>
<event>
      6  10013  3.31628E+03  7.17571E+00 -1.00000E+00  2.13973E-01
      21    -1     0     0   511   501  0.000000000E+00  0.000000000E+00  6.685656859E+00  6.685656859E+00  0.000000000E+00  0.00000E+00  9.000E+00
       4    -1     0     0   501     0  0.000000000E+00  0.000000000E+00 -4.550434281E+02  4.550434281E+02  0.000000000E+00  0.00000E+00  9.000E+00
      23     2     1     2     0     0 -7.097367480E+00 -1.057472737E+00 -4.440114672E+02  4.533397326E+02  9.120986394E+01  0.00000E+00  9.000E+00
      13     1     3     3     0     0 -4.199138598E+01  1.313282122E+01 -1.337673453E+02  1.408171201E+02  1.056583668E-01  0.00000E+00  9.000E+00
     -13     1     3     3     0     0  3.489401850E+01 -1.419029396E+01 -3.102441220E+02  3.125226125E+02  1.056583668E-01  0.00000E+00  9.000E+00
       4     1     1     2   511     0  7.097367480E+00  1.057472737E+00 -4.346303995E+00  8.389352308E+00  0.000000000E+00  0.00000E+00  9.000E+00
#pdf  -4  4 0.71534851E-03 0.68814385E-01 0.91209864E+02 0.13614732E+01 0.56488286E-01
#rwgt            1           2   73.848973772528225         54217137    18460308           0
</event>
<event>
      6  10013  3.31628E+03  1.80360E+00 -1.00000E+00  3.85161E-01
      -1    -1     0     0     0   511  0.000000000E+00  0.000000000E+00  3.638115172E+00  3.638115172E+00  0.000000000E+00  0.00000E+00  9.000E+00
       1    -1     0     0   501     0  0.000000000E+00  0.000000000E+00 -8.215148352E+02  8.215148352E+02  0.000000000E+00  0.00000E+00  9.000E+00
      23     2     1     2     0     0  1.152226247E+00  1.387564871E+00 -8.185745540E+02  8.232190595E+02  8.730444699E+01  0.00000E+00  9.000E+00
      13     1     3     3     0     0 -2.737681713E+01 -2.789543839E+01 -5.668777779E+02  5.682236108E+02  1.056583668E-01  0.00000E+00  9.000E+00
     -13     1     3     3     0     0  2.852904338E+01  2.928300326E+01 -2.516967761E+02  2.549954487E+02  1.056583668E-01  0.00000E+00  9.000E+00
      21     1     1     2   501   511 -1.152226247E+00 -1.387564871E+00  6.978340021E-01  1.933890868E+00  2.251259227E-07  0.00000E+00  9.000E+00
#pdf  -1  1 0.35719344E-03 0.12626488E+00 0.87304447E+02 0.21370493E+01 0.32522343E+00
#rwgt            1           5   943.86937285877661         54217137    18460371           0
</event>
<event>
      6  10013  3.31628E+03  2.64542E+01 -1.00000E+00  1.56896E-01
      21    -1     0     0   501   511  0.000000000E+00  0.000000000E+00  2.011160624E+01  2.011160624E+01  0.000000000E+00  0.00000E+00  9.000E+00
      -1    -1     0     0     0   501  0.000000000E+00  0.000000000E+00 -2.290752788E+02  2.290752788E+02  0.000000000E+00  0.00000E+00  9.000E+00
      23     2     1     2     0     0  7.373594906E+00  2.540580534E+01 -1.103958464E+02  1.471308161E+02  9.359705821E+01  0.00000E+00  9.000E+00
      13     1     3     3     0     0  3.681248541E+01  2.281619738E+01 -1.280463390E+01  4.516312387E+01  1.056583668E-01  0.00000E+00  9.000E+00
     -13     1     3     3     0     0 -2.943889050E+01  2.589607956E+00 -9.759121249E+01  1.019676922E+02  1.056583668E-01  0.00000E+00  9.000E+00
      -1     1     1     2     0   511 -7.373594906E+00 -2.540580534E+01 -9.856782617E+01  1.020560689E+02  0.000000000E+00  0.00000E+00  9.000E+00
#pdf   1 -1 0.27192403E-02 0.19062950E-01 0.93597058E+02 0.10485277E+01 0.38929006E+00
#rwgt            1           6   587.92362129682169         54217137    18460657           0
</event>
<event>
      6  10013  3.31628E+03  2.08691E+01 -1.00000E+00  1.64818E-01
       1    -1     0     0   511     0  0.000000000E+00  0.000000000E+00  5.127736922E+01  5.127736922E+01  0.000000000E+00  0.00000E+00  9.000E+00
      -1    -1     0     0     0   501  0.000000000E+00  0.000000000E+00 -1.057810267E+02  1.057810267E+02  0.000000000E+00  0.00000E+00  9.000E+00
      23     2     1     2     0     0  1.502366880E+01 -1.448475300E+01 -8.283948846E+01  1.218669479E+02  8.691175665E+01  0.00000E+00  9.000E+00
      13     1     3     3     0     0 -2.096369103E+01  1.280643060E+01  3.120779598E+00  2.476351016E+01  1.056583668E-01  0.00000E+00  9.000E+00
     -13     1     3     3     0     0  3.598735983E+01 -2.729118360E+01 -8.596026806E+01  9.710343773E+01  1.056583668E-01  0.00000E+00  9.000E+00
      21     1     1     2   511   501 -1.502366880E+01  1.448475300E+01  2.833583101E+01  3.519144801E+01  7.539457465E-07  0.00000E+00  9.000E+00
#pdf   1 -1 0.29191376E-02 0.15311431E-01 0.86911757E+02 0.10134419E+01 0.43580151E+00
#rwgt            1           6   509.69819777145847         54217137    18460682           0
</event>
<event>
      6  10013  3.31628E+03  1.98614E+01 -1.00000E+00  1.66577E-01
      -2    -1     0     0     0   511  0.000000000E+00  0.000000000E+00  2.380417831E+00  2.380417831E+00  0.000000000E+00  0.00000E+00  9.000E+00
       2    -1     0     0   501     0  0.000000000E+00  0.000000000E+00 -1.919769923E+03  1.919769923E+03  0.000000000E+00  0.00000E+00  9.000E+00
      23     2     1     2     0     0  1.620388093E+01 -1.148518172E+01 -1.839424801E+03  1.841695569E+03  8.924402767E+01  0.00000E+00  9.000E+00
      13     1     3     3     0     0 -5.801334520E+00  1.516254114E+00 -7.547842433E+00  9.640311086E+00  1.056583668E-01  0.00000E+00  9.000E+00
     -13     1     3     3     0     0  2.200521545E+01 -1.300143583E+01 -1.831876959E+03  1.832055258E+03  1.056583668E-01  0.00000E+00  9.000E+00
      21     1     1     2   501   511 -1.620388093E+01  1.148518172E+01 -7.796470388E+01  8.045477119E+01  3.814697266E-06  0.00000E+00  9.000E+00
#pdf  -2  2 0.17050308E-03 0.27640087E+00 0.89244028E+02 0.28050314E+01 0.37972968E+00
#rwgt            1           4   2456.8684625569299         54217137    18460732           0
</event>
<event>
      6  10013  3.31628E+03  4.04574E+01 -1.00000E+00  1.44503E-01
       1    -1     0     0   501     0  0.000000000E+00  0.000000000E+00  2.308229926E+02  2.308229926E+02  0.000000000E+00  0.00000E+00  9.000E+00
      21    -1     0     0   511   501  0.000000000E+00  0.000000000E+00 -2.859575545E+01  2.859575545E+01  0.000000000E+00  0.00000E+00  9.000E+00
      23     2     1     2     0     0 -4.006612924E+01 -5.612973553E+00  1.972681139E+02  2.186585581E+02  8.520596264E+01  0.00000E+00  9.000E+00
      13     1     3     3     0     0 -3.822943534E+01  3.607227834E+01  1.069674382E+02  1.191836524E+02  1.056583668E-01  0.00000E+00  9.000E+00
     -13     1     3     3     0     0 -1.836693903E+00 -4.168525189E+01  9.030067570E+01  9.947490571E+01  1.056583668E-01  0.00000E+00  9.000E+00
       1     1     1     2   511     0  4.006612924E+01  5.612973553E+00  4.959123248E+00  4.076018999E+01  0.000000000E+00  0.00000E+00  9.000E+00
#pdf   1 -1 0.28901815E-01 0.14863742E-02 0.85205963E+02 0.50570063E+00 0.12321572E+01
#rwgt            1           6   642.72206970580203         54217137    18460826           0
</event>
<event>
      6  10013  3.31628E+03  2.07077E+00 -1.00000E+00  3.55963E-01
       1    -1     0     0   501     0  0.000000000E+00  0.000000000E+00  2.436317596E+02  2.436317596E+02  0.000000000E+00  0.00000E+00  9.000E+00
      -1    -1     0     0     0   511  0.000000000E+00  0.000000000E+00 -7.088602137E+00  7.088602137E+00  0.000000000E+00  0.00000E+00  9.000E+00
      23     2     1     2     0     0 -3.710645165E-01  2.037251533E+00  2.426357925E+02  2.442854349E+02  2.826584163E+01  0.00000E+00  9.000E+00
      13     1     3     3     0     0 -1.183277784E+01  4.576463614E+00  6.291049403E+01  6.417709929E+01  1.056583668E-01  0.00000E+00  9.000E+00
     -13     1     3     3     0     0  1.146171332E+01 -2.539212080E+00  1.797252985E+02  1.801083356E+02  1.056583668E-01  0.00000E+00  9.000E+00
      21     1     1     2   501   511  3.710645165E-01 -2.037251533E+00 -6.092635015E+00  6.434926893E+00  2.230201594E-07  0.00000E+00  9.000E+00
#pdf   1 -1 0.37355368E-01 0.12655640E-03 0.28265842E+02 0.46955706E+00 0.23005994E+01
#rwgt            1           6   286.34312758833852         54217137    18460924           0
</event>
<event>
      6  10013  3.31628E+03  9.33134E+00 -1.00000E+00  1.99236E-01
      21    -1     0     0   511   501  0.000000000E+00  0.000000000E+00  9.486522643E+01  9.486522643E+01  0.000000000E+00  0.00000E+00  9.000E+00
       1    -1     0     0   501     0  0.000000000E+00  0.000000000E+00 -2.649366414E+01  2.649366414E+01  0.000000000E+00  0.00000E+00  9.000E+00
      23     2     1     2     0     0  5.130966779E+00  7.794046638E+00  5.312729231E+01  1.034853976E+02  8.831559517E+01  0.00000E+00  9.000E+00
      13     1     3     3     0     0  1.452033806E+01 -1.575001289E+01  6.988808553E+01  7.309759768E+01  1.056583668E-01  0.00000E+00  9.000E+00
     -13     1     3     3     0     0 -9.389371285E+00  2.354405953E+01 -1.676079322E+01  3.038779994E+01  1.056583668E-01  0.00000E+00  9.000E+00
       1     1     1     2   511     0 -5.130966779E+00 -7.794046638E+00  1.524426998E+01  1.787349295E+01  0.000000000E+00  0.00000E+00  9.000E+00
#pdf  -1  1 0.11980442E-01 0.38522571E-02 0.88315595E+02 0.49402002E+00 0.92144570E+00
#rwgt            1           5   484.89794562973827         54217137    18461033           0
</event>
<event>
      6  10013  3.31628E+03  7.19648E+00 -1.00000E+00  2.13798E-01
      -2    -1     0     0     0   501  0.000000000E+00  0.000000000E+00  1.084130915E+00  1.084130915E+00  0.000000000E+00  0.00000E+00  9.000E+00
       2    -1     0     0   511     0  0.000000000E+00  0.000000000E+00 -2.312535681E+03  2.312535681E+03  0.000000000E+00  0.00000E+00  9.000E+00
      23     2     1     2     0     0  5.783652971E+00 -4.282364017E+00 -2.115846917E+03  2.117882841E+03  9.256221102E+01  0.00000E+00  9.000E+00
      13     1     3     3     0     0 -1.386188288E+01 -4.489892730E+01 -1.211864574E+03  1.212775256E+03  1.056583668E-01  0.00000E+00  9.000E+00
     -13     1     3     3     0     0  1.964553585E+01  4.061656329E+01 -9.039823430E+02  9.051075847E+02  1.056583668E-01  0.00000E+00  9.000E+00
      21     1     1     2   511   501 -5.783652971E+00  4.282364017E+00 -1.956046335E+02  1.957369713E+02  0.000000000E+00  0.00000E+00  9.000E+00
#pdf  -2  2 0.15613835E-03 0.32469167E+00 0.92562211E+02 0.29185701E+01 0.30742757E+00
#rwgt            1           4   1979.1347469894670         54217137    18461096           0
</event>
<event>
      6  10013  3.31628E+03  3.17618E+00 -1.00000E+00  2.89413E-01
      -4    -1     0     0     0   501  0.000000000E+00  0.000000000E+00  4.813896347E+01  4.813896347E+01  0.000000000E+00  0.00000E+00  9.000E+00
      21    -1     0     0   501   511  0.000000000E+00  0.000000000E+00 -2.550911300E+01  2.550911300E+01  0.000000000E+00  0.00000E+00  9.000E+00
      23     2     1     2     0     0 -1.272580098E+00  2.910097647E+00  4.433628833E+01  5.171049290E+01  2.642310514E+01  0.00000E+00  9.000E+00
      13     1     3     3     0     0 -8.331104308E-01 -9.477066244E+00  3.478329415E+01  3.606102568E+01  1.056583668E-01  0.00000E+00  9.000E+00
     -13     1     3     3     0     0 -4.394696668E-01  1.238716389E+01  9.552994175E+00  1.564946722E+01  1.056583668E-01  0.00000E+00  9.000E+00
      -4     1     1     2     0   511  1.272580098E+00 -2.910097647E+00 -2.170643786E+01  2.193758357E+01  0.000000000E+00  0.00000E+00  9.000E+00
#pdf  -4  4 0.73354087E-02 0.56319227E-03 0.26423105E+02 0.34460042E+00 0.10720850E+01
#rwgt            1           2   399.77623501372619         54217137    18461280           0
</event>
<event>
      6  10013  3.31628E+03  1.45150E+01 -1.00000E+00  1.78691E-01
      21    -1     0     0   511   501  0.000000000E+00  0.000000000E+00  7.489760069E+01  7.489760069E+01  0.000000000E+00  0.00000E+00  9.000E+00
       5    -1     0     0   501     0  0.000000000E+00  0.000000000E+00 -7.921693782E+01  7.921693782E+01  0.000000000E+00  0.00000E+00  9.000E+00
      23     2     1     2     0     0 -5.027943024E+00  1.361638952E+01 -5.107490590E+01  1.051577261E+02  9.076791868E+01  0.00000E+00  9.000E+00
      13     1     3     3     0     0  2.297528285E+01  9.163165873E+00  1.793249099E+01  3.055180237E+01  1.056583668E-01  0.00000E+00  9.000E+00
     -13     1     3     3     0     0 -2.800322588E+01  4.453223645E+00 -6.900739689E+01  7.460592369E+01  1.056583668E-01  0.00000E+00  9.000E+00
       5     1     1     2   511     0  5.027943024E+00 -1.361638952E+01  4.675556877E+01  4.895681246E+01  0.000000000E+00  0.00000E+00  9.000E+00
#pdf  -5  5 0.41080225E-02 0.11867117E-01 0.90767919E+02 0.39701819E+00 0.19399253E+00
#rwgt            1           1   86.823034443109208         54217137    18461398           0
</event>
<event>
      6  10013  3.31628E+03  2.36366E+01 -1.00000E+00  1.60558E-01
      -3    -1     0     0     0   501  0.000000000E+00  0.000000000E+00  2.267343549E+01  2.267343549E+01  0.000000000E+00  0.00000E+00  9.000E+00
      21    -1     0     0   501   511  0.000000000E+00  0.000000000E+00 -1.798136469E+02  1.798136469E+02  0.000000000E+00  0.00000E+00  9.000E+00
      23     2     1     2     0     0  8.394814990E+00 -2.209565801E+01 -9.098486983E+01  1.322359597E+02  9.300221221E+01  0.00000E+00  9.000E+00
      13     1     3     3     0     0 -1.483069035E+01 -5.061355564E+01 -7.603042925E+01  9.253279811E+01  1.056583668E-01  0.00000E+00  9.000E+00
     -13     1     3     3     0     0  2.322550534E+01  2.851789762E+01 -1.495444058E+01  3.970316159E+01  1.056583668E-01  0.00000E+00  9.000E+00
      -3     1     1     2     0   511 -8.394814990E+00  2.209565801E+01 -6.615534161E+01  7.025112273E+01  0.000000000E+00  0.00000E+00  9.000E+00
#pdf  -3  3 0.30753906E-02 0.16641772E-01 0.93002212E+02 0.87799242E+00 0.36180539E+00
#rwgt            1           3   438.64269771101607         54217137    18461671           0
</event>
<event>
      6  10013  3.31628E+03  3.12991E+00 -1.00000E+00  2.91257E-01
      21    -1     0     0   511   501  0.000000000E+00  0.000000000E+00  2.515080148E+00  2.515080148E+00  0.000000000E+00  0.00000E+00  9.000E+00
       2    -1     0     0   501     0  0.000000000E+00  0.000000000E+00 -9.199803516E+02  9.199803516E+02  0.000000000E+00  0.00000E+00  9.000E+00
      23     2     1     2     0     0  2.357604486E+00 -2.058642001E+00 -9.027779378E+02  9.074783056E+02  9.219042239E+01  0.00000E+00  9.000E+00
      13     1     3     3     0     0  2.726736274E+01  2.141757289E+01 -7.546842718E+02  7.554803655E+02  1.056583668E-01  0.00000E+00  9.000E+00
     -13     1     3     3     0     0 -2.490975825E+01 -2.347621489E+01 -1.480936660E+02  1.519979401E+02  1.056583668E-01  0.00000E+00  9.000E+00
       2     1     1     2   511     0 -2.357604486E+00  2.058642001E+00 -1.468733364E+01  1.501712606E+01  0.000000000E+00  0.00000E+00  9.000E+00
#pdf  -2  2 0.36135856E-03 0.13917030E+00 0.92190422E+02 0.21454253E+01 0.56602951E+00
#rwgt            1           4   1695.5608903843192         54217137    18461713           0
</event>
<event>
      6  10013  3.31628E+03  1.62233E+01 -1.00000E+00  1.74189E-01
       3    -1     0     0   511     0  0.000000000E+00  0.000000000E+00  5.926673645E+00  5.926673645E+00  0.000000000E+00  0.00000E+00  9.000E+00
      -3    -1     0     0     0   501  0.000000000E+00  0.000000000E+00 -5.819432604E+02  5.819432604E+02  0.000000000E+00  0.00000E+00  9.000E+00
      23     2     1     2     0     0 -1.185816206E+01 -1.107160023E+01 -5.453756571E+02  5.531991551E+02  9.127705936E+01  0.00000E+00  9.000E+00
      13     1     3     3     0     0 -4.260342151E+01 -2.025215191E+01 -1.690531270E+02  1.755111737E+02  1.056583668E-01  0.00000E+00  9.000E+00
     -13     1     3     3     0     0  3.074525945E+01  9.180551685E+00 -3.763225301E+02  3.776879814E+02  1.056583668E-01  0.00000E+00  9.000E+00
      21     1     1     2   511   501  1.185816206E+01  1.107160023E+01 -3.064092969E+01  3.467077893E+01  1.011524364E-06  0.00000E+00  9.000E+00
#pdf   3 -3 0.59252129E-03 0.83201780E-01 0.91277059E+02 0.17318843E+01 0.82538984E-01
#rwgt            1           8   223.54877232321599         54217137    18461998           0
</event>
<event>
      6  10013  3.31628E+03  1.98555E+00 -1.00000E+00  3.64331E-01
      -2    -1     0     0     0   501  0.000000000E+00  0.000000000E+00  6.692090220E+00  6.692090220E+00  0.000000000E+00  0.00000E+00  9.000E+00
       2    -1     0     0   511     0  0.000000000E+00  0.000000000E+00 -8.223974931E+01  8.223974931E+01  0.000000000E+00  0.00000E+00  9.000E+00
      23     2     1     2     0     0 -1.238710420E+00  1.551770181E+00 -1.329567219E+01  2.664819587E+01  2.300889067E+01  0.00000E+00  9.000E+00
      13     1     3     3     0     0  6.909992175E+00 -4.724368091E+00 -1.402818110E+01  1.633611564E+01  1.056583668E-01  0.00000E+00  9.000E+00
     -13     1     3     3     0     0 -8.148702596E+00  6.276138272E+00  7.325089101E-01  1.031208023E+01  1.056583668E-01  0.00000E+00  9.000E+00
      21     1     1     2   511   501  1.238710420E+00 -1.551770181E+00 -6.225198690E+01  6.228364366E+01  9.536743164E-07  0.00000E+00  9.000E+00
#pdf  -2  2 0.10233141E-02 0.30612282E-02 0.23008891E+02 0.10950921E+01 0.86221615E+00
#rwgt            1           4   878.88198553564678         54217137    18462033           0
</event>
<event>
      6  10013  3.31628E+03  4.73152E+00 -1.00000E+00  2.47294E-01
       1    -1     0     0   511     0  0.000000000E+00  0.000000000E+00  1.653850742E+03  1.653850742E+03  0.000000000E+00  0.00000E+00  9.000E+00
      -1    -1     0     0     0   501  0.000000000E+00  0.000000000E+00 -2.324297977E-01  2.324297977E-01  0.000000000E+00  0.00000E+00  9.000E+00
      23     2     1     2     0     0 -3.207495564E+00 -3.478402966E+00  8.303703584E+02  8.308216212E+02  2.696751317E+01  0.00000E+00  9.000E+00
      13     1     3     3     0     0  6.292630404E+00  6.390208901E+00  5.852932939E+02  5.853620103E+02  1.056583668E-01  0.00000E+00  9.000E+00
     -13     1     3     3     0     0 -9.500125968E+00 -9.868611867E+00  2.450770645E+02  2.454596109E+02  1.056583668E-01  0.00000E+00  9.000E+00
      21     1     1     2   511   501  3.207495564E+00  3.478402966E+00  8.232479541E+02  8.232615509E+02  1.078959322E-05  0.00000E+00  9.000E+00
#pdf   1 -1 0.12586144E+00 0.34190258E-04 0.26967513E+02 0.34832909E+00 0.33912395E+01
#rwgt            1           6   288.78446631863812         54217137    18462252           0
</event>
<event>
      6  10013  3.31628E+03  5.59417E+00 -1.00000E+00  2.30220E-01
      21    -1     0     0   511   501  0.000000000E+00  0.000000000E+00  1.564578550E+02  1.564578550E+02  0.000000000E+00  0.00000E+00  9.000E+00
       4    -1     0     0   501     0  0.000000000E+00  0.000000000E+00 -1.846673595E+01  1.846673595E+01  0.000000000E+00  0.00000E+00  9.000E+00
      23     2     1     2     0     0 -1.505776763E+00 -5.387705601E+00  9.588042734E+01  1.324439472E+02  9.119785125E+01  0.00000E+00  9.000E+00
      13     1     3     3     0     0  2.904689782E+01  3.159068857E+01  5.211900556E+01  6.751367108E+01  1.056583668E-01  0.00000E+00  9.000E+00
     -13     1     3     3     0     0 -3.055267458E+01 -3.697839418E+01  4.376142177E+01  6.493027614E+01  1.056583668E-01  0.00000E+00  9.000E+00
       4     1     1     2   511     0  1.505776763E+00  5.387705601E+00  4.211069169E+01  4.248064371E+01  0.000000000E+00  0.00000E+00  9.000E+00
#pdf  -4  4 0.17530463E-01 0.28073019E-02 0.91197851E+02 0.23304338E+00 0.72521465E+00
#rwgt            1           2   131.59343678586541         54217137    18462334           0
</event>
<event>
      6  10013  3.31628E+03  1.14189E+01 -1.00000E+00  1.89269E-01
      -3    -1     0     0     0   501  0.000000000E+00  0.000000000E+00  1.919015561E+01  1.919015561E+01  0.000000000E+00  0.00000E+00  9.000E+00
      21    -1     0     0   501   511  0.000000000E+00  0.000000000E+00 -1.554725926E+02  1.554725926E+02  0.000000000E+00  0.00000E+00  9.000E+00
      23     2     1     2     0     0  9.984966016E+00 -5.540089470E+00 -1.351817050E+02  1.631908805E+02  9.070158755E+01  0.00000E+00  9.000E+00
      13     1     3     3     0     0  2.181889266E+01 -1.780779297E+01 -1.263260896E+00  2.819199460E+01  1.056583668E-01  0.00000E+00  9.000E+00
     -13     1     3     3     0     0 -1.183392665E+01  1.226770350E+01 -1.339184441E+02  1.349988859E+02  1.056583668E-01  0.00000E+00  9.000E+00
      -3     1     1     2     0   511 -9.984966016E+00  5.540089470E+00 -1.100732026E+00  1.147186771E+01  0.000000000E+00  0.00000E+00  9.000E+00
#pdf  -3  3 0.21376778E-02 0.22771982E-01 0.90701588E+02 0.10268371E+01 0.29247591E+00
#rwgt            1           3   317.48739435955991         54217137    18462421           0
</event>
<event>
      6  10013  3.31628E+03  3.69489E+00 -1.00000E+00  2.71747E-01
       2    -1     0     0   511     0  0.000000000E+00  0.000000000E+00  6.577951918E+02  6.577951918E+02  0.000000000E+00  0.00000E+00  9.000E+00
      -2    -1     0     0     0   501  0.000000000E+00  0.000000000E+00 -4.249167410E+00  4.249167410E+00  0.000000000E+00  0.00000E+00  9.000E+00
      23     2     1     2     0     0 -7.341655603E-01 -3.621212937E+00  4.664534646E+02  4.749153179E+02  8.917439282E+01  0.00000E+00  9.000E+00
      13     1     3     3     0     0 -3.262691128E+01 -3.105041790E+01  2.925278277E+02  2.959749734E+02  1.056583668E-01  0.00000E+00  9.000E+00
     -13     1     3     3     0     0  3.189274572E+01  2.742920496E+01  1.739256370E+02  1.789403445E+02  1.056583668E-01  0.00000E+00  9.000E+00
      21     1     1     2   511   501  7.341655603E-01  3.621212937E+00  1.870925598E+02  1.871290413E+02  3.814697266E-06  0.00000E+00  9.000E+00
#pdf   2 -2 0.72350904E-01 0.65035376E-03 0.89174393E+02 0.62071326E+00 0.17068862E+01
#rwgt            1           7   1352.7590125531217         54217137    18462485           0
</event>
<event>
      5  10013  3.31628E+03  8.94427E-01 -1.00000E+00  7.47618E-01
      -2    -1     0     0     0   501  0.000000000E+00  0.000000000E+00  5.598071158E-01  5.598071158E-01  0.000000000E+00  0.00000E+00  9.000E+00
       2    -1     0     0   501     0  0.000000000E+00  0.000000000E+00 -4.363670554E+02  4.363670554E+02  0.000000000E+00  0.00000E+00  9.000E+00
      23     2     1     2     0     0  0.000000000E+00  0.000000000E+00 -4.358072483E+02  4.369268625E+02  3.125900720E+01  0.00000E+00  9.000E+00
      13     1     3     3     0     0  1.927786499E+00 -1.339730113E+00 -1.923679998E+00  3.036930356E+00  1.056583668E-01  0.00000E+00  9.000E+00
     -13     1     3     3     0     0 -1.927786499E+00  1.339730113E+00 -4.338835683E+02  4.338899322E+02  1.056583668E-01  0.00000E+00  9.000E+00
#pdf  -2  2 0.86124172E-04 0.67133393E-01 0.31259007E+02 0.26769275E+01 0.62794002E+00
#rwgt            1           4   2833.9548577800310         54217137    18462590           0
</event>
<event>
      6  10013  3.31628E+03  2.35646E+00 -1.00000E+00  3.32623E-01
      -2    -1     0     0     0   501  0.000000000E+00  0.000000000E+00  1.604608246E+00  1.604608246E+00  0.000000000E+00  0.00000E+00  9.000E+00
       2    -1     0     0   511     0  0.000000000E+00  0.000000000E+00 -2.660757732E+02  2.660757732E+02  0.000000000E+00  0.00000E+00  9.000E+00
      23     2     1     2     0     0  7.513508753E-01  2.233463712E+00 -1.951455380E+02  1.983147167E+02  3.523340721E+01  0.00000E+00  9.000E+00
      13     1     3     3     0     0 -1.494494278E+01  1.071389415E+00 -4.688551112E+01  4.922155530E+01  1.056583668E-01  0.00000E+00  9.000E+00
     -13     1     3     3     0     0  1.569629365E+01  1.162074297E+00 -1.482600268E+02  1.490931614E+02  1.056583668E-01  0.00000E+00  9.000E+00
      21     1     1     2   511   501 -7.513508753E-01 -2.233463712E+00 -6.932562700E+01  6.936566476E+01  9.536743164E-07  0.00000E+00  9.000E+00
#pdf  -2  2 0.24323957E-03 0.30198708E-01 0.35233407E+02 0.19790251E+01 0.63590374E+00
#rwgt            1           4   1555.1220022529519         54217137    18463018           0
</event>
<event>
      6  10013  3.31628E+03  1.55510E+00 -1.00000E+00  4.22880E-01
      -2    -1     0     0     0   501  0.000000000E+00  0.000000000E+00  7.339059425E+00  7.339059425E+00  0.000000000E+00  0.00000E+00  9.000E+00
       2    -1     0     0   511     0  0.000000000E+00  0.000000000E+00 -6.067372726E+02  6.067372726E+02  0.000000000E+00  0.00000E+00  9.000E+00
      23     2     1     2     0     0  1.721071993E-01  1.545545950E+00 -1.805665856E+01  3.273269745E+01  2.725744359E+01  0.00000E+00  9.000E+00
      13     1     3     3     0     0 -8.867232811E+00 -8.156540113E+00 -2.525434138E+00  1.231039990E+01  1.056583668E-01  0.00000E+00  9.000E+00
     -13     1     3     3     0     0  9.039340011E+00  9.702086063E+00 -1.553122442E+01  2.042229755E+01  1.056583668E-01  0.00000E+00  9.000E+00
      21     1     1     2   511   501 -1.721071993E-01 -1.545545950E+00 -5.813415546E+02  5.813436345E+02  7.629394531E-06  0.00000E+00  9.000E+00
#pdf  -2  2 0.11270932E-02 0.39005307E-02 0.27257444E+02 0.11013033E+01 0.83543350E+00
#rwgt            1           4   1012.5047616012979         54217137    18463231           0
</event>
<event>
      6  10013  3.31628E+03  4.72821E+00 -1.00000E+00  2.47357E-01
      -3    -1     0     0     0   501  0.000000000E+00  0.000000000E+00  6.107424343E+02  6.107424343E+02  0.000000000E+00  0.00000E+00  9.000E+00
       3    -1     0     0   511     0  0.000000000E+00  0.000000000E+00 -4.433783791E+00  4.433783791E+00  0.000000000E+00  0.00000E+00  9.000E+00
      23     2     1     2     0     0 -3.625613359E+00 -3.034939591E+00  5.996726209E+02  6.070280392E+02  9.409267859E+01  0.00000E+00  9.000E+00
      13     1     3     3     0     0  3.364173460E+01  5.812767129E+00  4.834985246E+02  4.847023716E+02  1.056583668E-01  0.00000E+00  9.000E+00
     -13     1     3     3     0     0 -3.726734795E+01 -8.847706719E+00  1.161740963E+02  1.223256676E+02  1.056583668E-01  0.00000E+00  9.000E+00
      21     1     1     2   511   501  3.625613359E+00  3.034939591E+00  6.636029603E+00  8.148178903E+00  1.460009660E-07  0.00000E+00  9.000E+00
#pdf  -3  3 0.92706155E-01 0.56508840E-03 0.94092679E+02 0.70789858E-01 0.17739270E+01
#rwgt            1           3   144.08483106546225         54217137    18463466           0
</event>
<event>
      6  10013  3.31628E+03  1.01415E+01 -1.00000E+00  1.94996E-01
       1    -1     0     0   501     0  0.000000000E+00  0.000000000E+00  4.629333600E+02  4.629333600E+02  0.000000000E+00  0.00000E+00  9.000E+00
      -1    -1     0     0     0   511  0.000000000E+00  0.000000000E+00 -5.627154973E+00  5.627154973E+00  0.000000000E+00  0.00000E+00  9.000E+00
      23     2     1     2     0     0  9.662469757E+00 -3.080140911E+00  4.222781194E+02  4.320938539E+02  9.101339369E+01  0.00000E+00  9.000E+00
      13     1     3     3     0     0  2.506039497E+01  2.488962042E+01  7.033465113E+01  7.870508823E+01  1.056583668E-01  0.00000E+00  9.000E+00
     -13     1     3     3     0     0 -1.539792521E+01 -2.796976133E+01  3.519434683E+02  3.533887656E+02  1.056583668E-01  0.00000E+00  9.000E+00
      21     1     1     2   501   511 -9.662469757E+00  3.080140911E+00  3.502808559E+01  3.646666108E+01  8.259061849E-07  0.00000E+00  9.000E+00
#pdf   1 -1 0.65316673E-01 0.75041216E-03 0.91013394E+02 0.41520342E+00 0.16278225E+01
#rwgt            1           6   676.32395796042817         54217137    18463543           0
</event>
<event>
      6  10013  3.31628E+03  1.65888E+00 -1.00000E+00  4.05503E-01
       2    -1     0     0   511     0  0.000000000E+00  0.000000000E+00  1.746347500E-01  1.746347500E-01  0.000000000E+00  0.00000E+00  9.000E+00
      -2    -1     0     0     0   501  0.000000000E+00  0.000000000E+00 -1.407936733E+03  1.407936733E+03  0.000000000E+00  0.00000E+00  9.000E+00
      23     2     1     2     0     0 -1.507666953E+00  6.919615732E-01 -1.391783878E+03  1.392047265E+03  2.702727223E+01  0.00000E+00  9.000E+00
      13     1     3     3     0     0 -9.623834054E+00  7.490289466E+00 -1.106141829E+03  1.106209058E+03  1.056583668E-01  0.00000E+00  9.000E+00
     -13     1     3     3     0     0  8.116167101E+00 -6.798327893E+00 -2.856420486E+02  2.858382069E+02  1.056583668E-01  0.00000E+00  9.000E+00
      21     1     1     2   511   501  1.507666953E+00 -6.919615732E-01 -1.597822058E+01  1.606410294E+01  0.000000000E+00  0.00000E+00  9.000E+00
#pdf   2 -2 0.20222493E-04 0.21373863E+00 0.27027272E+02 0.39761145E+01 0.26464744E-01
#rwgt            1           7   177.22243937210007         54217137    18463639           0
</event>
<event>
      6  10013  3.31628E+03  4.22476E+00 -1.00000E+00  2.57895E-01
      -1    -1     0     0     0   501  0.000000000E+00  0.000000000E+00  1.544685501E+01  1.544685501E+01  0.000000000E+00  0.00000E+00  9.000E+00
       1    -1     0     0   511     0  0.000000000E+00  0.000000000E+00 -2.016966368E+02  2.016966368E+02  0.000000000E+00  0.00000E+00  9.000E+00
      23     2     1     2     0     0  3.735637104E+00 -1.973215166E+00 -1.361229619E+02  1.668389529E+02  9.637389108E+01  0.00000E+00  9.000E+00
      13     1     3     3     0     0 -2.069320979E+01  4.133621641E+01 -5.699862059E+01  7.338763950E+01  1.056583668E-01  0.00000E+00  9.000E+00
     -13     1     3     3     0     0  2.442884689E+01 -4.330943157E+01 -7.912434127E+01  9.345131336E+01  1.056583668E-01  0.00000E+00  9.000E+00
      21     1     1     2   511   501 -3.735637104E+00  1.973215166E+00 -5.012681997E+01  5.030453899E+01  6.743495762E-07  0.00000E+00  9.000E+00
#pdf  -1  1 0.23605015E-02 0.23282403E-01 0.96373891E+02 0.10377850E+01 0.53480772E+00
#rwgt            1           5   738.68986018804708         54217137    18463798           0
</event>
<event>
      6  10013  3.31628E+03  8.32879E+00 -1.00000E+00  2.05345E-01
      21    -1     0     0   511   501  0.000000000E+00  0.000000000E+00  1.060085359E+00  1.060085359E+00  0.000000000E+00  0.00000E+00  9.000E+00
       2    -1     0     0   501     0  0.000000000E+00  0.000000000E+00 -2.575166884E+02  2.575166884E+02  0.000000000E+00  0.00000E+00  9.000E+00
      23     2     1     2     0     0  6.869434962E+00 -4.709526546E+00 -1.936589566E+02  1.952292152E+02  2.326555865E+01  0.00000E+00  9.000E+00
      13     1     3     3     0     0  1.536809684E+01 -1.624819702E+00 -1.341603409E+02  1.350474978E+02  1.056583668E-01  0.00000E+00  9.000E+00
     -13     1     3     3     0     0 -8.498661881E+00 -3.084706844E+00 -5.949861575E+01  6.018171740E+01  1.056583668E-01  0.00000E+00  9.000E+00
       2     1     1     2   511     0 -6.869434962E+00  4.709526546E+00 -6.279764639E+01  6.334755851E+01  0.000000000E+00  0.00000E+00  9.000E+00
#pdf  -2  2 0.11372170E-03 0.28164167E-01 0.23265559E+02 0.22322214E+01 0.62708256E+00
#rwgt            1           4   2102.0653850359022         54217137    18463911           0
</event>
<event>
      6  10013  3.31628E+03  3.84680E+00 -1.00000E+00  2.67420E-01
      -4    -1     0     0     0   501  0.000000000E+00  0.000000000E+00  2.470880233E+00  2.470880233E+00  0.000000000E+00  0.00000E+00  9.000E+00
      21    -1     0     0   501   511  0.000000000E+00  0.000000000E+00 -6.993428007E+01  6.993428007E+01  0.000000000E+00  0.00000E+00  9.000E+00
      23     2     1     2     0     0 -1.906131141E+00 -3.341341622E+00 -4.606854678E+01  5.066722947E+01  2.073786970E+01  0.00000E+00  9.000E+00
      13     1     3     3     0     0 -5.193457919E+00  7.652414192E+00 -1.596303817E+01  1.844888071E+01  1.056583668E-01  0.00000E+00  9.000E+00
     -13     1     3     3     0     0  3.287326777E+00 -1.099375581E+01 -3.010550861E+01  3.221834876E+01  1.056583668E-01  0.00000E+00  9.000E+00
      -4     1     1     2     0   511  1.906131141E+00  3.341341622E+00 -2.139485305E+01  2.173793083E+01  0.000000000E+00  0.00000E+00  9.000E+00
#pdf  -4  4 0.34781151E-03 0.73164031E-02 0.20737870E+02 0.11659403E+01 0.32624098E+00
#rwgt            1           2   346.15193878604811         54217137    18464016           0
</event>
<event>
      6  10013  3.31628E+03  1.64611E+01 -1.00000E+00  1.73618E-01
       1    -1     0     0   501     0  0.000000000E+00  0.000000000E+00  4.202587975E+02  4.202587975E+02  0.000000000E+00  0.00000E+00  9.000E+00
      -1    -1     0     0     0   511  0.000000000E+00  0.000000000E+00 -7.065091777E+00  7.065091777E+00  0.000000000E+00  0.00000E+00  9.000E+00
      23     2     1     2     0     0 -1.578371532E+01  4.673720419E+00  3.609892406E+02  3.725856439E+02  9.075164381E+01  0.00000E+00  9.000E+00
      13     1     3     3     0     0  2.903285257E+01  6.737075932E-01  2.648584090E+02  2.664457701E+02  1.056583668E-01  0.00000E+00  9.000E+00
     -13     1     3     3     0     0 -4.481656790E+01  4.000012826E+00  9.613083164E+01  1.061398738E+02  1.056583668E-01  0.00000E+00  9.000E+00
      21     1     1     2   501   511  1.578371532E+01 -4.673720419E+00  5.220446511E+01  5.473824540E+01  0.000000000E+00  0.00000E+00  9.000E+00
#pdf   1 -1 0.55522846E-01 0.87770905E-03 0.90751644E+02 0.43328118E+00 0.15314063E+01
#rwgt            1           6   979.31862053225689         54217137    18464115           0
</event>
<event>
      6  10013  3.31628E+03  7.44939E+00 -1.00000E+00  2.11735E-01
      -2    -1     0     0     0   501  0.000000000E+00  0.000000000E+00  1.344664802E+00  1.344664802E+00  0.000000000E+00  0.00000E+00  9.000E+00
      21    -1     0     0   501   511  0.000000000E+00  0.000000000E+00 -2.136727514E+02  2.136727514E+02  0.000000000E+00  0.00000E+00  9.000E+00
      23     2     1     2     0     0 -7.337297371E+00  1.287409501E+00 -1.069880244E+02  1.094142815E+02  2.166920105E+01  0.00000E+00  9.000E+00
      13     1     3     3     0     0  5.546738211E+00 -5.787266626E+00 -3.116341941E+01  3.217807690E+01  1.056583668E-01  0.00000E+00  9.000E+00
     -13     1     3     3     0     0 -1.288403558E+01  7.074676127E+00 -7.582460501E+01  7.723620462E+01  1.056583668E-01  0.00000E+00  9.000E+00
      -2     1     1     2     0   511  7.337297371E+00 -1.287409501E+00 -1.053400621E+02  1.056031347E+02  0.000000000E+00  0.00000E+00  9.000E+00
#pdf  -2  2 0.17649687E-03 0.15742079E-01 0.21669201E+02 0.19037667E+01 0.64373764E+00
#rwgt            1           4   1409.7162890956909         54217137    18464223           0
</event>
<event>
      6  10013  3.31628E+03  1.59406E+00 -1.00000E+00  4.16036E-01
       1    -1     0     0   501     0  0.000000000E+00  0.000000000E+00  1.304683886E+02  1.304683886E+02  0.000000000E+00  0.00000E+00  9.000E+00
      21    -1     0     0   511   501  0.000000000E+00  0.000000000E+00 -1.681962970E+01  1.681962970E+01  0.000000000E+00  0.00000E+00  9.000E+00
      23     2     1     2     0     0  7.973464298E-01  1.380313420E+00  1.165721455E+02  1.439582713E+02  8.445340570E+01  0.00000E+00  9.000E+00
      13     1     3     3     0     0  2.707339809E+01  1.485498720E+01  8.651108054E+00  3.207011635E+01  1.056583668E-01  0.00000E+00  9.000E+00
     -13     1     3     3     0     0 -2.627605166E+01 -1.347467378E+01  1.079210374E+02  1.118881549E+02  1.056583668E-01  0.00000E+00  9.000E+00
       1     1     1     2   511     0 -7.973464298E-01 -1.380313420E+00 -2.923386571E+00  3.329747064E+00  0.000000000E+00  0.00000E+00  9.000E+00
#pdf   1 -1 0.20037232E-01 0.21062499E-02 0.84453406E+02 0.55337265E+00 0.10689065E+01
#rwgt            1           6   671.37437663580647         54217137    18464347           0
</event>
<event>
      6  10013  3.31628E+03  2.65331E+01 -1.00000E+00  1.56802E-01
      21    -1     0     0   501   511  0.000000000E+00  0.000000000E+00  1.752026678E+01  1.752026678E+01  0.000000000E+00  0.00000E+00  9.000E+00
      -1    -1     0     0     0   501  0.000000000E+00  0.000000000E+00 -2.411836061E+02  2.411836061E+02  0.000000000E+00  0.00000E+00  9.000E+00
      23     2     1     2     0     0  2.449278790E+01 -1.020330022E+01 -1.449310351E+02  1.756209040E+02  9.557035620E+01  0.00000E+00  9.000E+00
      13     1     3     3     0     0 -1.405699194E+01 -2.036033037E+01  5.791631378E-01  2.474850841E+01  1.056583668E-01  0.00000E+00  9.000E+00
     -13     1     3     3     0     0  3.854977984E+01  1.015703015E+01 -1.455101983E+02  1.508723956E+02  1.056583668E-01  0.00000E+00  9.000E+00
      -1     1     1     2     0   511 -2.449278790E+01  1.020330022E+01 -7.873230415E+01  8.308296884E+01  0.000000000E+00  0.00000E+00  9.000E+00
#pdf   1 -1 0.22747211E-02 0.23759185E-01 0.95570356E+02 0.11208665E+01 0.34455721E+00
#rwgt            1           6   565.57361547193739         54217137    18464529           0
</event>
<event>
      6  10013  3.31628E+03  5.17682E+00 -1.00000E+00  2.35823E-01
       2    -1     0     0   501     0  0.000000000E+00  0.000000000E+00  5.565489154E+02  5.565489154E+02  0.000000000E+00  0.00000E+00  9.000E+00
      21    -1     0     0   511   501  0.000000000E+00  0.000000000E+00 -1.057826925E+00  1.057826925E+00  0.000000000E+00  0.00000E+00  9.000E+00
      23     2     1     2     0     0  3.043247645E-01 -5.167865985E+00  5.458387352E+02  5.466537804E+02  2.938760408E+01  0.00000E+00  9.000E+00
      13     1     3     3     0     0 -1.250118441E+01 -4.672295143E+00  1.457304493E+02  1.463403053E+02  1.056583668E-01  0.00000E+00  9.000E+00
     -13     1     3     3     0     0  1.280550917E+01 -4.955708418E-01  4.001082859E+02  4.003134750E+02  1.056583668E-01  0.00000E+00  9.000E+00
       2     1     1     2   511     0 -3.043247645E-01  5.167865985E+00  9.652353317E+00  1.095296202E+01  0.000000000E+00  0.00000E+00  9.000E+00
#pdf   2 -2 0.82763573E-01 0.61745090E-04 0.29387604E+02 0.62593054E+00 0.29126206E+01
#rwgt            1           7   2502.9117123405144         54217137    18464556           0
</event>
<event>
      6  10013  3.31628E+03  1.47191E+01 -1.00000E+00  1.78113E-01
       3    -1     0     0   511     0  0.000000000E+00  0.000000000E+00  1.486726874E+01  1.486726874E+01  0.000000000E+00  0.00000E+00  9.000E+00
      -3    -1     0     0     0   501  0.000000000E+00  0.000000000E+00 -2.015608981E+02  2.015608981E+02  0.000000000E+00  0.00000E+00  9.000E+00
      23     2     1     2     0     0  1.471238431E+01 -4.445130499E-01 -1.747176689E+02  1.974525121E+02  9.079966334E+01  0.00000E+00  9.000E+00
      13     1     3     3     0     0 -2.391487622E+01  1.973833231E+01 -2.044528330E+01  3.714221103E+01  1.056583668E-01  0.00000E+00  9.000E+00
     -13     1     3     3     0     0  3.862726053E+01 -2.018284536E+01 -1.542723856E+02  1.603103011E+02  1.056583668E-01  0.00000E+00  9.000E+00
      21     1     1     2   511   501 -1.471238431E+01  4.445130499E-01 -1.197596043E+01  1.897565472E+01  2.920019320E-07  0.00000E+00  9.000E+00
#pdf   3 -3 0.17262992E-02 0.28259579E-01 0.90799663E+02 0.11247118E+01 0.24912028E+00
#rwgt            1           8   282.51276595707645         54217137    18464591           0
</event>
<event>
      6  10013  3.31628E+03  2.42050E+00 -1.00000E+00  3.28183E-01
      -2    -1     0     0     0   511  0.000000000E+00  0.000000000E+00  2.057644896E+01  2.057644896E+01  0.000000000E+00  0.00000E+00  9.000E+00
       2    -1     0     0   501     0  0.000000000E+00  0.000000000E+00 -2.006793129E+02  2.006793129E+02  0.000000000E+00  0.00000E+00  9.000E+00
      23     2     1     2     0     0  2.348964108E-01 -2.409075352E+00 -1.901028050E+02  2.109670476E+02  9.144484606E+01  0.00000E+00  9.000E+00
      13     1     3     3     0     0  2.756912295E+01 -2.756833600E+01 -1.550968121E+02  1.599221748E+02  1.056583668E-01  0.00000E+00  9.000E+00
     -13     1     3     3     0     0 -2.733422654E+01  2.515926064E+01 -3.500599285E+01  5.104487277E+01  1.056583668E-01  0.00000E+00  9.000E+00
      21     1     1     2   501   511 -2.348964108E-01  2.409075352E+00  9.999941067E+00  1.028871429E+01  2.920019320E-07  0.00000E+00  9.000E+00
#pdf  -2  2 0.16043798E-02 0.30840725E-01 0.91444846E+02 0.11982387E+01 0.65146078E+00
#rwgt            1           4   856.70056077735740         54217137    18464624           0
</event>
<event>
      6  10013  3.31628E+03  7.40692E+00 -1.00000E+00  2.12074E-01
      -2    -1     0     0     0   501  0.000000000E+00  0.000000000E+00  5.189691500E+00  5.189691500E+00  0.000000000E+00  0.00000E+00  9.000E+00
       2    -1     0     0   511     0  0.000000000E+00  0.000000000E+00 -9.263328284E+01  9.263328284E+01  0.000000000E+00  0.00000E+00  9.000E+00
      23     2     1     2     0     0 -7.060064005E+00  2.240070481E+00 -7.196674909E+01  8.066502967E+01  3.567592489E+01  0.00000E+00  9.000E+00
      13     1     3     3     0     0 -6.077815746E+00 -1.162746492E+01 -6.245889012E+01  6.382211140E+01  1.056583668E-01  0.00000E+00  9.000E+00
     -13     1     3     3     0     0 -9.822482588E-01  1.386753540E+01 -9.507858971E+00  1.684291826E+01  1.056583668E-01  0.00000E+00  9.000E+00
      21     1     1     2   511   501  7.060064005E+00 -2.240070481E+00 -1.547684225E+01  1.715794467E+01  2.384185791E-07  0.00000E+00  9.000E+00
#pdf  -2  2 0.65512793E-03 0.11495759E-01 0.35675925E+02 0.14153315E+01 0.69499485E+00
#rwgt            1           4   782.94210045014972         54217137    18464947           0
</event>
<event>
      6  10013  3.31628E+03  1.54617E+01 -1.00000E+00  1.76105E-01
       1    -1     0     0   501     0  0.000000000E+00  0.000000000E+00  3.240842880E+03  3.240842880E+03  0.000000000E+00  0.00000E+00  9.000E+00
      -1    -1     0     0     0   511  0.000000000E+00  0.000000000E+00 -2.522444682E+00  2.522444682E+00  0.000000000E+00  0.00000E+00  9.000E+00
      23     2     1     2     0     0 -1.164695251E+01  1.016926911E+01  3.207905317E+03  3.209245756E+03  9.144798593E+01  0.00000E+00  9.000E+00
      13     1     3     3     0     0 -3.617604856E+01  2.279976809E+01  2.834500764E+03  2.834823298E+03  1.056583668E-01  0.00000E+00  9.000E+00
     -13     1     3     3     0     0  2.452909605E+01 -1.263049898E+01  3.734045534E+02  3.744224589E+02  1.056583668E-01  0.00000E+00  9.000E+00
      21     1     1     2   501   511  1.164695251E+01 -1.016926911E+01  3.041511744E+01  3.411956779E+01  3.584217162E-06  0.00000E+00  9.000E+00
#pdf   1 -1 0.48671911E+00 0.10166774E-03 0.91447986E+02 0.32852723E-01 0.33937030E+01
#rwgt            1           6   955.98158253368513         54217137    18465012           0
</event>
<event>
      6  10013  3.31628E+03  1.76498E+01 -1.00000E+00  1.70933E-01
      -2    -1     0     0     0   511  0.000000000E+00  0.000000000E+00  1.351506617E+00  1.351506617E+00  0.000000000E+00  0.00000E+00  9.000E+00
       2    -1     0     0   501     0  0.000000000E+00  0.000000000E+00 -2.340781334E+03  2.340781334E+03  0.000000000E+00  0.00000E+00  9.000E+00
      23     2     1     2     0     0 -1.382144420E+01  1.097642303E+01 -2.113803153E+03  2.115816888E+03  9.058598147E+01  0.00000E+00  9.000E+00
      13     1     3     3     0     0  8.071287044E+00 -8.262387674E-02 -1.964185546E+03  1.964202133E+03  1.056583668E-01  0.00000E+00  9.000E+00
     -13     1     3     3     0     0 -2.189273124E+01  1.105904690E+01 -1.496176075E+02  1.516147547E+02  1.056583668E-01  0.00000E+00  9.000E+00
      21     1     1     2   501   511  1.382144420E+01 -1.097642303E+01 -2.256266739E+02  2.263159520E+02  5.394796609E-06  0.00000E+00  9.000E+00
#pdf  -2  2 0.15204360E-03 0.31935017E+00 0.90585981E+02 0.29323057E+01 0.31586424E+00
#rwgt            1           4   1912.8213193146930         54217137    18465090           0
</event>
<event>
      6  10013  3.31628E+03  1.74021E+01 -1.00000E+00  1.71470E-01
      21    -1     0     0   501   511  0.000000000E+00  0.000000000E+00  4.377471525E+00  4.377471525E+00  0.000000000E+00  0.00000E+00  9.000E+00
      -1    -1     0     0     0   501  0.000000000E+00  0.000000000E+00 -1.323665615E+03  1.323665615E+03  0.000000000E+00  0.00000E+00  9.000E+00
      23     2     1     2     0     0 -1.282535193E+01 -1.176190615E+01 -1.294094813E+03  1.297423877E+03  9.123869644E+01  0.00000E+00  9.000E+00
      13     1     3     3     0     0  3.895106791E+01  5.841714619E-01 -4.698385381E+02  4.714507292E+02  1.056583668E-01  0.00000E+00  9.000E+00
     -13     1     3     3     0     0 -5.177641983E+01 -1.234607761E+01 -8.242562751E+02  8.259731482E+02  1.056583668E-01  0.00000E+00  9.000E+00
      -1     1     1     2     0   511  1.282535193E+01  1.176190615E+01 -2.519333070E+01  3.061920966E+01  0.000000000E+00  0.00000E+00  9.000E+00
#pdf   1 -1 0.25154728E-03 0.19581764E+00 0.91238696E+02 0.24737306E+01 0.37483453E-01
#rwgt            1           6   114.52767445737649         54217137    18465153           0
</event>
<event>
      6  10013  3.31628E+03  1.03656E+00 -1.00000E+00  6.25012E-01
      -2    -1     0     0     0   511  0.000000000E+00  0.000000000E+00  2.302806913E-01  2.302806913E-01  0.000000000E+00  0.00000E+00  9.000E+00
       2    -1     0     0   501     0  0.000000000E+00  0.000000000E+00 -5.846133735E+02  5.846133735E+02  0.000000000E+00  0.00000E+00  9.000E+00
      23     2     1     2     0     0 -1.014596249E+00 -2.122554511E-01 -5.750902164E+02  5.754931457E+02  2.150649296E+01  0.00000E+00  9.000E+00
      13     1     3     3     0     0 -1.152894410E+00 -4.265466666E+00 -5.539242441E+02  5.539418766E+02  1.056583668E-01  0.00000E+00  9.000E+00
     -13     1     3     3     0     0  1.382981607E-01  4.053211215E+00 -2.116597239E+01  2.155126907E+01  1.056583668E-01  0.00000E+00  9.000E+00
      21     1     1     2   501   511  1.014596249E+00  2.122554511E-01 -9.292876342E+00  9.350508469E+00  1.192092896E-07  0.00000E+00  9.000E+00
#pdf  -2  2 0.30958620E-04 0.88403791E-01 0.21506493E+02 0.32101501E+01 0.62807367E+00
#rwgt            1           4   2195.5560795965403         54217137    18465206           0
</event>
<event>
      6  10013  3.31628E+03  4.36208E+00 -1.00000E+00  2.54806E-01
      21    -1     0     0   511   501  0.000000000E+00  0.000000000E+00  3.088359634E+00  3.088359634E+00  0.000000000E+00  0.00000E+00  9.000E+00
       1    -1     0     0   501     0  0.000000000E+00  0.000000000E+00 -7.459174611E+02  7.459174611E+02  0.000000000E+00  0.00000E+00  9.000E+00
      23     2     1     2     0     0  2.056305781E+00 -3.846992839E+00 -6.921482950E+02  6.981376393E+02  9.114753571E+01  0.00000E+00  9.000E+00
      13     1     3     3     0     0  1.245155540E+01 -4.107042281E+01 -5.168919856E+02  5.186705668E+02  1.056583668E-01  0.00000E+00  9.000E+00
     -13     1     3     3     0     0 -1.039524961E+01  3.722342997E+01 -1.752563094E+02  1.794670725E+02  1.056583668E-01  0.00000E+00  9.000E+00
       1     1     1     2   511     0 -2.056305781E+00  3.846992839E+00 -5.068080638E+01  5.086818143E+01  0.000000000E+00  0.00000E+00  9.000E+00
#pdf  -1  1 0.46019209E-03 0.10682281E+00 0.91147536E+02 0.19609364E+01 0.35146079E+00
#rwgt            1           5   1208.5706952088708         54217137    18465503           0
</event>
<event>
      6  10013  3.31628E+03  1.09490E+01 -1.00000E+00  1.91257E-01
      -1    -1     0     0     0   501  0.000000000E+00  0.000000000E+00  6.169074528E+00  6.169074528E+00  0.000000000E+00  0.00000E+00  9.000E+00
       1    -1     0     0   511     0  0.000000000E+00  0.000000000E+00 -4.344187445E+02  4.344187445E+02  0.000000000E+00  0.00000E+00  9.000E+00
      23     2     1     2     0     0 -5.807581768E+00 -9.281812718E+00 -3.773762129E+02  3.885494804E+02  9.185865555E+01  0.00000E+00  9.000E+00
      13     1     3     3     0     0 -9.809356232E+00 -3.736433092E+01 -3.369882874E+02  3.391952737E+02  1.056583668E-01  0.00000E+00  9.000E+00
     -13     1     3     3     0     0  4.001774464E+00  2.808251820E+01 -4.038792544E+01  4.935420663E+01  1.056583668E-01  0.00000E+00  9.000E+00
      21     1     1     2   511   501  5.807581768E+00  9.281812718E+00 -5.087345715E+01  5.203833871E+01  9.536743164E-07  0.00000E+00  9.000E+00
#pdf  -1  1 0.85344102E-03 0.58503245E-01 0.91858656E+02 0.15512927E+01 0.42747660E+00
#rwgt            1           5   1305.8385034319326         54217137    18465673           0
</event>
<event>
      6  10013  3.31628E+03  2.08048E+01 -1.00000E+00  1.64927E-01
      -3    -1     0     0     0   511  0.000000000E+00  0.000000000E+00  3.770325374E+02  3.770325374E+02  0.000000000E+00  0.00000E+00  9.000E+00
       3    -1     0     0   501     0  0.000000000E+00  0.000000000E+00 -1.029953594E+01  1.029953594E+01  0.000000000E+00  0.00000E+00  9.000E+00
      23     2     1     2     0     0 -3.488428371E+00  2.051025736E+01  2.148248877E+02  2.340059021E+02  9.042228715E+01  0.00000E+00  9.000E+00
      13     1     3     3     0     0 -4.673267349E+01  1.021311103E+01  1.233767125E+02  1.323256391E+02  1.056583668E-01  0.00000E+00  9.000E+00
     -13     1     3     3     0     0  4.324424512E+01  1.029714633E+01  9.144817525E+01  1.016802630E+02  1.056583668E-01  0.00000E+00  9.000E+00
      21     1     1     2   501   511  3.488428371E+00 -2.051025736E+01  1.519081137E+02  1.533261713E+02  1.907348633E-06  0.00000E+00  9.000E+00
#pdf  -3  3 0.33646328E-01 0.14378931E-02 0.90422287E+02 0.21644534E+00 0.12131787E+01
#rwgt            1           3   292.55615650677316         54217137    18465720           0
</event>
<event>
      6  10013  3.31628E+03  4.95724E+00 -1.00000E+00  2.43195E-01
      -2    -1     0     0     0   501  0.000000000E+00  0.000000000E+00  1.278537386E+00  1.278537386E+00  0.000000000E+00  0.00000E+00  9.000E+00
      21    -1     0     0   501   511  0.000000000E+00  0.000000000E+00 -3.286240457E+02  3.286240457E+02  0.000000000E+00  0.00000E+00  9.000E+00
      23     2     1     2     0     0 -4.460035860E+00 -2.163855981E+00 -8.841062544E+01  9.091628129E+01  2.060964143E+01  0.00000E+00  9.000E+00
      13     1     3     3     0     0 -1.204831566E+01  2.424072677E+00 -4.860211383E+01  5.013197255E+01  1.056583668E-01  0.00000E+00  9.000E+00
     -13     1     3     3     0     0  7.588279797E+00 -4.587928658E+00 -3.980851160E+01  4.078430874E+01  1.056583668E-01  0.00000E+00  9.000E+00
      -2     1     1     2     0   511  4.460035860E+00  2.163855981E+00 -2.389348828E+02  2.389863018E+02  0.000000000E+00  0.00000E+00  9.000E+00
#pdf  -2  2 0.18739805E-03 0.13411863E-01 0.20609641E+02 0.18388728E+01 0.65050401E+00
#rwgt            1           4   1097.4179234299793         54217137    18465776           0
</event>
<event>
      6  10013  3.31628E+03  3.95387E+00 -1.00000E+00  2.64554E-01
       2    -1     0     0   501     0  0.000000000E+00  0.000000000E+00  1.319471546E+03  1.319471546E+03  0.000000000E+00  0.00000E+00  9.000E+00
      -2    -1     0     0     0   511  0.000000000E+00  0.000000000E+00 -4.142732888E-01  4.142732888E-01  0.000000000E+00  0.00000E+00  9.000E+00
      23     2     1     2     0     0  3.706823029E+00  1.375698513E+00  1.273406023E+03  1.274063666E+03  4.073934063E+01  0.00000E+00  9.000E+00
      13     1     3     3     0     0 -1.812087625E+01  3.680968318E+00  6.814932429E+02  6.817440626E+02  1.056583668E-01  0.00000E+00  9.000E+00
     -13     1     3     3     0     0  2.182769928E+01 -2.305269805E+00  5.919127797E+02  5.923196035E+02  1.056583668E-01  0.00000E+00  9.000E+00
      21     1     1     2   501   511 -3.706823029E+00 -1.375698513E+00  4.565125004E+01  4.582215309E+01  0.000000000E+00  0.00000E+00  9.000E+00
#pdf   2 -2 0.19504278E+00 0.50351383E-04 0.40739341E+02 0.52628272E+00 0.34474918E+01
#rwgt            1           7   2065.9299082961320         54217137    18465860           0
</event>
<event>
      6  10013  3.31628E+03  9.90051E-01 -1.00000E+00  6.59317E-01
       1    -1     0     0   501     0  0.000000000E+00  0.000000000E+00  3.640210901E+03  3.640210901E+03  0.000000000E+00  0.00000E+00  9.000E+00
      -1    -1     0     0     0   511  0.000000000E+00  0.000000000E+00 -6.246443166E-01  6.246443166E-01  0.000000000E+00  0.00000E+00  9.000E+00
      23     2     1     2     0     0 -9.451451088E-01 -2.947911114E-01  3.635826422E+03  3.636947544E+03  9.029221058E+01  0.00000E+00  9.000E+00
      13     1     3     3     0     0  4.006452549E+01 -1.957027117E+01  1.633520958E+03  1.634129399E+03  1.056583668E-01  0.00000E+00  9.000E+00
     -13     1     3     3     0     0 -4.100967060E+01  1.927548005E+01  2.002305464E+03  2.002818144E+03  1.056583668E-01  0.00000E+00  9.000E+00
      21     1     1     2   501   511  9.451451088E-01  2.947911114E-01  3.759834866E+00  3.888001967E+00  3.449868233E-07  0.00000E+00  9.000E+00
#pdf   1 -1 0.55941052E+00 0.86234934E-04 0.90292211E+02 0.16807489E-01 0.35840605E+01
#rwgt            1           6   871.04274583109543         54217137    18465990           0
</event>
<event>
      6  10013  3.31628E+03  2.09614E+01 -1.00000E+00  1.64663E-01
      -2    -1     0     0     0   511  0.000000000E+00  0.000000000E+00  2.428950985E+01  2.428950985E+01  0.000000000E+00  0.00000E+00  9.000E+00
       2    -1     0     0   501     0  0.000000000E+00  0.000000000E+00 -1.949359140E+02  1.949359140E+02  0.000000000E+00  0.00000E+00  9.000E+00
      23     2     1     2     0     0 -1.912204006E+01  8.586539145E+00 -1.742990714E+02  1.979481343E+02  9.145445047E+01  0.00000E+00  9.000E+00
      13     1     3     3     0     0 -1.079570972E+01 -2.874029898E+01 -1.489136272E+02  1.520454921E+02  1.056583668E-01  0.00000E+00  9.000E+00
     -13     1     3     3     0     0 -8.326330347E+00  3.732683812E+01 -2.538544420E+01  4.590264221E+01  1.056583668E-01  0.00000E+00  9.000E+00
      21     1     1     2   501   511  1.912204006E+01 -8.586539145E+00  3.652667296E+00  2.127728951E+01  4.129530925E-07  0.00000E+00  9.000E+00
#pdf  -2  2 0.17731796E-02 0.27910669E-01 0.91454450E+02 0.11498702E+01 0.65667741E+00
#rwgt            1           4   688.39137266932426         54217137    18466278           0
</event>
<event>
      6  10013 -3.31628E+03  2.20868E+01 -1.00000E+00  1.62850E-01
      21    -1     0     0   501   511  0.000000000E+00  0.000000000E+00  2.289308235E+02  2.289308235E+02  0.000000000E+00  0.00000E+00  9.000E+00
      -4    -1     0     0     0   501  0.000000000E+00  0.000000000E+00 -4.989718695E+00  4.989718695E+00  0.000000000E+00  0.00000E+00  9.000E+00
      23     2     1     2     0     0 -3.772166122E+00  2.176234124E+01  1.501055651E+02  1.568522890E+02  3.978858056E+01  0.00000E+00  9.000E+00
      13     1     3     3     0     0  8.845413668E-01  3.240733338E+01  9.067098722E+01  9.629255816E+01  1.056583668E-01  0.00000E+00  9.000E+00
     -13     1     3     3     0     0 -4.656707488E+00 -1.064499214E+01  5.943457792E+01  6.055973083E+01  1.056583668E-01  0.00000E+00  9.000E+00
      -4     1     1     2     0   511  3.772166122E+00 -2.176234124E+01  7.383553962E+01  7.706825316E+01  0.000000000E+00  0.00000E+00  9.000E+00
#pdf   4 -4 0.20644673E-01 0.45375580E-03 0.39788581E+02 0.18588182E+00 0.13239625E+01
#rwgt            1           9  -991.81365479496696         54217137    18466420           0
</event>
<event>
      6  10013  3.31628E+03  4.49882E+01 -1.00000E+00  1.41714E-01
      21    -1     0     0   501   511  0.000000000E+00  0.000000000E+00  4.755930869E+01  4.755930869E+01  0.000000000E+00  0.00000E+00  9.000E+00
      -1    -1     0     0     0   501  0.000000000E+00  0.000000000E+00 -1.137799876E+02  1.137799876E+02  0.000000000E+00  0.00000E+00  9.000E+00
      23     2     1     2     0     0  3.000094925E+01 -3.352428224E+01 -5.346604196E+01  1.145780386E+02  9.080514765E+01  0.00000E+00  9.000E+00
      13     1     3     3     0     0  1.799680333E+01 -6.462021121E+01 -4.284134197E+01  7.959301711E+01  1.056583668E-01  0.00000E+00  9.000E+00
     -13     1     3     3     0     0  1.200414592E+01  3.109592897E+01 -1.062469999E+01  3.498502153E+01  1.056583668E-01  0.00000E+00  9.000E+00
      -1     1     1     2     0   511 -3.000094925E+01  3.352428224E+01 -1.275463698E+01  4.676125768E+01  0.000000000E+00  0.00000E+00  9.000E+00
#pdf   1 -1 0.42122947E-02 0.11582852E-01 0.90805148E+02 0.89601519E+00 0.50327812E+00
#rwgt            1           6   498.98556424745937         54217137    18466455           0
</event>
<event>
      6  10013  3.31628E+03  3.56920E+01 -1.00000E+00  1.47945E-01
      21    -1     0     0   501   511  0.000000000E+00  0.000000000E+00  3.268812405E+00  3.268812405E+00  0.000000000E+00  0.00000E+00  9.000E+00
      -2    -1     0     0     0   501  0.000000000E+00  0.000000000E+00 -1.388895178E+03  1.388895178E+03  0.000000000E+00  0.00000E+00  9.000E+00
      23     2     1     2     0     0  3.435764506E+01 -9.668202441E+00 -1.077927798E+03  1.082402259E+03  9.160998901E+01  0.00000E+00  9.000E+00
      13     1     3     3     0     0  1.560346740E+01 -3.219195620E+01 -1.576582830E+02  1.616661238E+02  1.056583668E-01  0.00000E+00  9.000E+00
     -13     1     3     3     0     0  1.875417766E+01  2.252375376E+01 -9.202695152E+02  9.207361351E+02  1.056583668E-01  0.00000E+00  9.000E+00
      -2     1     1     2     0   511 -3.435764506E+01  9.668202441E+00 -3.076985677E+02  3.097617317E+02  0.000000000E+00  0.00000E+00  9.000E+00
#pdf   2 -2 0.32070799E-03 0.15484215E+00 0.91609989E+02 0.22795744E+01 0.44193643E-01
#rwgt            1           7   124.32527535690313         54217137    18466532           0
</event>
<event>
      6  10013  3.31628E+03  8.16138E+00 -1.00000E+00  2.06478E-01
      21    -1     0     0   501   511  0.000000000E+00  0.000000000E+00  9.565391000E+00  9.565391000E+00  0.000000000E+00  0.00000E+00  9.000E+00
      -2    -1     0     0     0   501  0.000000000E+00  0.000000000E+00 -1.637964864E+02  1.637964864E+02  0.000000000E+00  0.00000E+00  9.000E+00
      23     2     1     2     0     0 -4.511019068E+00  6.801388749E+00 -1.611844629E+02  1.626400538E+02  2.011834532E+01  0.00000E+00  9.000E+00
      13     1     3     3     0     0 -9.786072728E+00  2.881886749E+00 -1.419001962E+02  1.422664729E+02  1.056583668E-01  0.00000E+00  9.000E+00
     -13     1     3     3     0     0  5.275053660E+00  3.919502001E+00 -1.928426677E+01  2.037358082E+01  1.056583668E-01  0.00000E+00  9.000E+00
      -2     1     1     2     0   511  4.511019068E+00 -6.801388749E+00  6.953367530E+00  1.072182363E+01  0.000000000E+00  0.00000E+00  9.000E+00
#pdf   2 -2 0.10375611E-03 0.23082567E-01 0.20118345E+02 0.22025683E+01 0.30012260E+00
#rwgt            1           7   746.22316413964484         54217137    18466642           0
</event>
<event>
      6  10013  3.31628E+03  3.30275E+00 -1.00000E+00  2.84620E-01
      -2    -1     0     0     0   501  0.000000000E+00  0.000000000E+00  1.518849965E+01  1.518849965E+01  0.000000000E+00  0.00000E+00  9.000E+00
       2    -1     0     0   511     0  0.000000000E+00  0.000000000E+00 -1.642462436E+02  1.642462436E+02  0.000000000E+00  0.00000E+00  9.000E+00
      23     2     1     2     0     0  9.367229318E-01 -3.167124131E+00 -1.190295298E+02  1.492254439E+02  8.994051371E+01  0.00000E+00  9.000E+00
      13     1     3     3     0     0 -1.268340273E+01  4.130121462E+01 -6.330433081E+01  7.664273284E+01  1.056583668E-01  0.00000E+00  9.000E+00
     -13     1     3     3     0     0  1.362012566E+01 -4.446833875E+01 -5.572519900E+01  7.258271103E+01  1.056583668E-01  0.00000E+00  9.000E+00
      21     1     1     2   511   501 -9.367229318E-01  3.167124131E+00 -3.002821414E+01  3.020929939E+01  3.371747881E-07  0.00000E+00  9.000E+00
#pdf  -2  2 0.23211981E-02 0.20621099E-01 0.89940514E+02 0.10251409E+01 0.67684829E+00
#rwgt            1           4   653.33500910420923         54217137    18466687           0
</event>
<event>
      6  10013  3.31628E+03  4.17291E+00 -1.00000E+00  2.59109E-01
      -2    -1     0     0     0   501  0.000000000E+00  0.000000000E+00  2.152253658E+00  2.152253658E+00  0.000000000E+00  0.00000E+00  9.000E+00
       2    -1     0     0   511     0  0.000000000E+00  0.000000000E+00 -1.160312621E+03  1.160312621E+03  0.000000000E+00  0.00000E+00  9.000E+00
      23     2     1     2     0     0 -3.303826737E+00  2.549099308E+00 -1.006312033E+03  1.010559214E+03  9.245865844E+01  0.00000E+00  9.000E+00
      13     1     3     3     0     0  1.533960623E+01  9.546070390E+00 -3.835643232E+01  4.239879766E+01  1.056583668E-01  0.00000E+00  9.000E+00
     -13     1     3     3     0     0 -1.864343297E+01 -6.996971082E+00 -9.679556005E+02  9.681604159E+02  1.056583668E-01  0.00000E+00  9.000E+00
      21     1     1     2   511   501  3.303826737E+00 -2.549099308E+00 -1.518483348E+02  1.519056613E+02  0.000000000E+00  0.00000E+00  9.000E+00
#pdf  -2  2 0.32637397E-03 0.15498617E+00 0.92458658E+02 0.22294907E+01 0.54821165E+00
#rwgt            1           4   1340.3950632030505         54217137    18466939           0
</event>
<event>
      6  10013  3.31628E+03  1.57695E+00 -1.00000E+00  4.18992E-01
       2    -1     0     0   511     0  0.000000000E+00  0.000000000E+00  4.673784935E+02  4.673784935E+02  0.000000000E+00  0.00000E+00  9.000E+00
      -2    -1     0     0     0   501  0.000000000E+00  0.000000000E+00 -1.002060189E+00  1.002060189E+00  0.000000000E+00  0.00000E+00  9.000E+00
      23     2     1     2     0     0 -3.372267971E-01  1.540468762E+00  3.024090023E+02  3.044055397E+02  3.477126959E+01  0.00000E+00  9.000E+00
      13     1     3     3     0     0  6.134749389E+00 -1.413343539E+01  8.900143028E+01  9.032527277E+01  1.056583668E-01  0.00000E+00  9.000E+00
     -13     1     3     3     0     0 -6.471976187E+00  1.567390415E+01  2.134075720E+02  2.140802670E+02  1.056583668E-01  0.00000E+00  9.000E+00
      21     1     1     2   511   501  3.372267971E-01 -1.540468762E+00  1.639674310E+02  1.639750140E+02  3.814697266E-06  0.00000E+00  9.000E+00
#pdf   2 -2 0.46630112E-01 0.15342210E-03 0.34771270E+02 0.62985810E+00 0.22956566E+01
#rwgt            1           7   2142.3315743426028         54217137    18467143           0
</event>
<event>
      6  10013  3.31628E+03  5.00289E+00 -1.00000E+00  2.38385E-01
       2    -1     0     0   501     0  0.000000000E+00  0.000000000E+00  2.238631129E+01  2.238631129E+01  0.000000000E+00  0.00000E+00  9.000E+00
      21    -1     0     0   511   501  0.000000000E+00  0.000000000E+00 -9.751135853E+00  9.751135853E+00  0.000000000E+00  0.00000E+00  9.000E+00
      23     2     1     2     0     0 -4.272697719E+00  2.602487930E+00  4.202430434E+00  2.233234248E+01  2.135519163E+01  0.00000E+00  9.000E+00
      13     1     3     3     0     0 -1.147040354E+01 -4.952246381E-01 -2.805375933E+00  1.181933596E+01  1.056583668E-01  0.00000E+00  9.000E+00
     -13     1     3     3     0     0  7.197705819E+00  3.097712568E+00  7.007806366E+00  1.051300651E+01  1.056583668E-01  0.00000E+00  9.000E+00
       2     1     1     2   511     0  4.272697719E+00 -2.602487930E+00  8.432745000E+00  9.805104663E+00  0.000000000E+00  0.00000E+00  9.000E+00
#pdf   2 -2 0.19873299E-02 0.13578453E-02 0.21355192E+02 0.94961295E+00 0.97677403E+00
#rwgt            1           7   836.83707652970804         54217137    18467292           0
</event>
<event>
      6  10013  3.31628E+03  7.62686E+00 -1.00000E+00  2.10352E-01
      21    -1     0     0   501   511  0.000000000E+00  0.000000000E+00  2.126358931E+02  2.126358931E+02  0.000000000E+00  0.00000E+00  9.000E+00
      -1    -1     0     0     0   501  0.000000000E+00  0.000000000E+00 -1.601703776E+01  1.601703776E+01  0.000000000E+00  0.00000E+00  9.000E+00
      23     2     1     2     0     0 -6.633968895E+00 -3.762903814E+00  1.188937183E+02  1.505544935E+02  9.204765218E+01  0.00000E+00  9.000E+00
      13     1     3     3     0     0  4.087035633E+01  1.149470098E+01  5.343195390E+01  6.824587195E+01  1.056583668E-01  0.00000E+00  9.000E+00
     -13     1     3     3     0     0 -4.750432522E+01 -1.525760480E+01  6.546176437E+01  8.230862152E+01  1.056583668E-01  0.00000E+00  9.000E+00
      -1     1     1     2     0   511  6.633968895E+00  3.762903814E+00  7.772513705E+01  7.809843736E+01  0.000000000E+00  0.00000E+00  9.000E+00
#pdf   1 -1 0.20656001E-01 0.24271269E-02 0.92047652E+02 0.55068875E+00 0.10197304E+01
#rwgt            1           6   687.13316348690796         54217137    18467331           0
</event>
<event>
      6  10013  3.31628E+03  1.00860E+01 -1.00000E+00  1.95270E-01
       2    -1     0     0   501     0  0.000000000E+00  0.000000000E+00  2.963141738E+03  2.963141738E+03  0.000000000E+00  0.00000E+00  9.000E+00
      21    -1     0     0   511   501  0.000000000E+00  0.000000000E+00 -9.240714862E-01  9.240714862E-01  0.000000000E+00  0.00000E+00  9.000E+00
      23     2     1     2     0     0 -5.702752365E+00 -8.318976558E+00  2.813114241E+03  2.814621645E+03  9.155078184E+01  0.00000E+00  9.000E+00
      13     1     3     3     0     0 -4.589267320E+01  5.639929276E+00  1.086697613E+03  1.087680863E+03  1.056583668E-01  0.00000E+00  9.000E+00
     -13     1     3     3     0     0  4.018992083E+01 -1.395890583E+01  1.726416628E+03  1.726940782E+03  1.056583668E-01  0.00000E+00  9.000E+00
       2     1     1     2   511     0  5.702752365E+00  8.318976558E+00  1.491034260E+02  1.494441649E+02  0.000000000E+00  0.00000E+00  9.000E+00
#pdf   2 -2 0.43029937E+00 0.11525684E-03 0.91550782E+02 0.17301496E+00 0.32439725E+01
#rwgt            1           7   2403.1759320208980         54217137    18467541           0
</event>
<event>
      6  10013  3.31628E+03  1.34565E+01 -1.00000E+00  1.81895E-01
       2    -1     0     0   511     0  0.000000000E+00  0.000000000E+00  1.379912954E+02  1.379912954E+02  0.000000000E+00  0.00000E+00  9.000E+00
      -2    -1     0     0     0   501  0.000000000E+00  0.000000000E+00 -3.980404534E+01  3.980404534E+01  0.000000000E+00  0.00000E+00  9.000E+00
      23     2     1     2     0     0 -1.275974275E+01  4.273849211E+00  1.541941953E+00  8.021771829E+01  7.906597195E+01  0.00000E+00  9.000E+00
      13     1     3     3     0     0 -2.932774135E+01  2.064030655E+01  2.761139394E+01  4.526078773E+01  1.056583668E-01  0.00000E+00  9.000E+00
     -13     1     3     3     0     0  1.656799860E+01 -1.636645734E+01 -2.606945199E+01  3.495693056E+01  1.056583668E-01  0.00000E+00  9.000E+00
      21     1     1     2   511   501  1.275974275E+01 -4.273849211E+00  9.664530812E+01  9.757762245E+01  1.348699152E-06  0.00000E+00  9.000E+00
#pdf   2 -2 0.62000513E-02 0.59661922E-02 0.79065972E+02 0.84325381E+00 0.66469588E+00
#rwgt            1           7   200.85859149336378         54217137    18467622           0
</event>
<event>
      6  10013  3.31628E+03  2.26866E+00 -1.00000E+00  3.39134E-01
       2    -1     0     0   511     0  0.000000000E+00  0.000000000E+00  1.670891768E+01  1.670891768E+01  0.000000000E+00  0.00000E+00  9.000E+00
      -2    -1     0     0     0   501  0.000000000E+00  0.000000000E+00 -2.079487680E+01  2.079487680E+01  0.000000000E+00  0.00000E+00  9.000E+00
      23     2     1     2     0     0 -2.164032053E+00 -6.810024818E-01 -6.598511448E+00  3.411857391E+01  3.339745399E+01  0.00000E+00  9.000E+00
      13     1     3     3     0     0  1.550304867E+01 -8.042056732E-01 -8.833087564E-01  1.554936214E+01  1.056583668E-01  0.00000E+00  9.000E+00
     -13     1     3     3     0     0 -1.766708072E+01  1.232031913E-01 -5.715202692E+00  1.856921177E+01  1.056583668E-01  0.00000E+00  9.000E+00
      21     1     1     2   511   501  2.164032053E+00  6.810024818E-01  2.512552327E+00  3.385220569E+00  7.884953353E-08  0.00000E+00  9.000E+00
#pdf   2 -2 0.21120606E-02 0.31248821E-02 0.33397454E+02 0.10152898E+01 0.78522901E+00
#rwgt            1           7   695.41278894043296         54217137    18467655           0
</event>
<event>
      6  10013  3.31628E+03  4.85086E+00 -1.00000E+00  2.45085E-01
      -2    -1     0     0     0   501  0.000000000E+00  0.000000000E+00  5.551568450E+01  5.551568450E+01  0.000000000E+00  0.00000E+00  9.000E+00
      21    -1     0     0   501   511  0.000000000E+00  0.000000000E+00 -1.295495044E+01  1.295495044E+01  0.000000000E+00  0.00000E+00  9.000E+00
      23     2     1     2     0     0 -6.440816998E-01  4.807911776E+00  5.295435846E+01  5.700074893E+01  2.052779681E+01  0.00000E+00  9.000E+00
      13     1     3     3     0     0  4.081936743E+00  7.029976527E+00  5.063854049E+01  5.128699372E+01  1.056583668E-01  0.00000E+00  9.000E+00
     -13     1     3     3     0     0 -4.726018443E+00 -2.222064751E+00  2.315817967E+00  5.713755212E+00  1.056583668E-01  0.00000E+00  9.000E+00
      -2     1     1     2     0   511  6.440816998E-01 -4.807911776E+00 -1.039362440E+01  1.146988601E+01  0.000000000E+00  0.00000E+00  9.000E+00
#pdf  -2  2 0.82313828E-02 0.30291807E-03 0.20527797E+02 0.49268862E+00 0.16130989E+01
#rwgt            1           4   714.85539753943306         54217137    18467791           0
</event>
<event>
      6  10013  3.31628E+03  5.95312E+00 -1.00000E+00  2.25923E-01
       2    -1     0     0   501     0  0.000000000E+00  0.000000000E+00  5.914069592E+02  5.914069592E+02  0.000000000E+00  0.00000E+00  9.000E+00
      -2    -1     0     0     0   511  0.000000000E+00  0.000000000E+00 -4.136326162E+00  4.136326162E+00  0.000000000E+00  0.00000E+00  9.000E+00
      23     2     1     2     0     0  5.524901830E+00 -2.217007379E+00  5.713774029E+02  5.785717083E+02  9.076147586E+01  0.00000E+00  9.000E+00
      13     1     3     3     0     0 -3.707817733E+01 -1.195655532E+01  1.516090598E+02  1.565345605E+02  1.056583668E-01  0.00000E+00  9.000E+00
     -13     1     3     3     0     0  4.260307916E+01  9.739547939E+00  4.197683431E+02  4.220371478E+02  1.056583668E-01  0.00000E+00  9.000E+00
      21     1     1     2   501   511 -5.524901830E+00  2.217007379E+00  1.589323015E+01  1.697157702E+01  1.685873940E-07  0.00000E+00  9.000E+00
#pdf   2 -2 0.88267956E-01 0.55222151E-03 0.90761476E+02 0.61080847E+00 0.18229377E+01
#rwgt            1           7   1123.1999486586278         54217137    18467870           0
</event>
<event>
      6  10013 -3.31628E+03  3.28440E+01 -1.00000E+00  1.50323E-01
       5    -1     0     0   501     0  0.000000000E+00  0.000000000E+00  1.130294338E+02  1.130294338E+02  0.000000000E+00  0.00000E+00  9.000E+00
      -5    -1     0     0     0   511  0.000000000E+00  0.000000000E+00 -4.065443868E+01  4.065443868E+01  0.000000000E+00  0.00000E+00  9.000E+00
      23     2     1     2     0     0 -5.822278081E+00  3.232386749E+01  6.487816419E+01  1.199950938E+02  9.545111327E+01  0.00000E+00  9.000E+00
      13     1     3     3     0     0 -4.610901471E+01 -3.757547488E+00  2.343166759E+01  5.185763792E+01  1.056583668E-01  0.00000E+00  9.000E+00
     -13     1     3     3     0     0  4.028673663E+01  3.608141498E+01  4.144649660E+01  6.813745592E+01  1.056583668E-01  0.00000E+00  9.000E+00
      21     1     1     2   501   511  5.822278081E+00 -3.232386749E+01  7.496830923E+00  3.368877863E+01  7.952251473E-07  0.00000E+00  9.000E+00
#pdf   5 -5 0.13447210E-01 0.40090651E-02 0.95451113E+02 0.17789213E+00 0.40803102E+00
#rwgt            1          10  -854.47625635621648         54217137    18467994           0
</event>
<event>
      6  10013  3.31628E+03  2.63069E+01 -1.00000E+00  1.57074E-01
       2    -1     0     0   501     0  0.000000000E+00  0.000000000E+00  6.145475179E+02  6.145475179E+02  0.000000000E+00  0.00000E+00  9.000E+00
      21    -1     0     0   511   501  0.000000000E+00  0.000000000E+00 -3.057540149E+00  3.057540149E+00  0.000000000E+00  0.00000E+00  9.000E+00
      23     2     1     2     0     0  1.590450558E+01  2.095467013E+01  5.447725132E+02  5.458884520E+02  2.291417607E+01  0.00000E+00  9.000E+00
      13     1     3     3     0     0 -5.604231731E+00  4.481676767E+00  7.764831151E+01  7.797925547E+01  1.056583668E-01  0.00000E+00  9.000E+00
     -13     1     3     3     0     0  2.150873731E+01  1.647299337E+01  4.671242016E+02  4.679091965E+02  1.056583668E-01  0.00000E+00  9.000E+00
       2     1     1     2   511     0 -1.590450558E+01 -2.095467013E+01  6.671746462E+01  7.171660605E+01  0.000000000E+00  0.00000E+00  9.000E+00
#pdf   2 -2 0.55104311E-01 0.56381446E-04 0.22914176E+02 0.62717370E+00 0.27497346E+01
#rwgt            1           7   1849.8807190402024         54217137    18468153           0
</event>
<event>
      6  10013  3.31628E+03  5.99653E+00 -1.00000E+00  2.25432E-01
      -1    -1     0     0     0   501  0.000000000E+00  0.000000000E+00  6.737349654E+02  6.737349654E+02  0.000000000E+00  0.00000E+00  9.000E+00
       1    -1     0     0   511     0  0.000000000E+00  0.000000000E+00 -3.385737336E+00  3.385737336E+00  0.000000000E+00  0.00000E+00  9.000E+00
      23     2     1     2     0     0 -2.063065630E+00 -5.630467380E+00  6.377155071E+02  6.439406161E+02  8.912065257E+01  0.00000E+00  9.000E+00
      13     1     3     3     0     0  1.481608005E+01 -4.207368134E+01  4.352741089E+02  4.375537361E+02  1.056583668E-01  0.00000E+00  9.000E+00
     -13     1     3     3     0     0 -1.687914568E+01  3.644321396E+01  2.024413982E+02  2.063868800E+02  1.056583668E-01  0.00000E+00  9.000E+00
      21     1     1     2   511   501  2.063065630E+00  5.630467380E+00  3.263372101E+01  3.318008665E+01  0.000000000E+00  0.00000E+00  9.000E+00
#pdf  -1  1 0.98366514E-01 0.47777424E-03 0.89120653E+02 0.11694670E+00 0.19553457E+01
#rwgt            1           5   349.79529824479181         54217137    18468204           0
</event>
<event>
      6  10013 -3.31628E+03  6.41026E+00 -1.00000E+00  2.21026E-01
      -4    -1     0     0     0   501  0.000000000E+00  0.000000000E+00  1.800496723E+01  1.800496723E+01  0.000000000E+00  0.00000E+00  9.000E+00
      21    -1     0     0   501   511  0.000000000E+00  0.000000000E+00 -4.085348456E+01  4.085348456E+01  0.000000000E+00  0.00000E+00  9.000E+00
      23     2     1     2     0     0  6.124247901E+00  1.893430550E+00 -3.218485197E+01  4.753331885E+01  3.438691921E+01  0.00000E+00  9.000E+00
      13     1     3     3     0     0 -1.329600161E+01 -2.230764832E+00 -6.220075521E+00  1.484791143E+01  1.056583668E-01  0.00000E+00  9.000E+00
     -13     1     3     3     0     0  1.942024951E+01  4.124195382E+00 -2.596477645E+01  3.268540742E+01  1.056583668E-01  0.00000E+00  9.000E+00
      -4     1     1     2     0   511 -6.124247901E+00 -1.893430550E+00  9.336334642E+00  1.132513294E+01  0.000000000E+00  0.00000E+00  9.000E+00
#pdf  -4  4 0.11606566E-02 0.60283169E-02 0.34386919E+02 0.87669557E+00 0.40596261E+00
#rwgt            1           2  -862.74342457372575         54217137    18468303           0
</event>
<event>
      6  10013  3.31628E+03  5.46449E+01 -1.00000E+00  1.36882E-01
      21    -1     0     0   501   511  0.000000000E+00  0.000000000E+00  1.798072039E+02  1.798072039E+02  0.000000000E+00  0.00000E+00  9.000E+00
      -5    -1     0     0     0   501  0.000000000E+00  0.000000000E+00 -6.445992490E+01  6.445992490E+01  0.000000000E+00  0.00000E+00  9.000E+00
      23     2     1     2     0     0 -4.841379515E+01  2.534115259E+01 -1.079263310E+01  1.067995072E+02  9.112400467E+01  0.00000E+00  9.000E+00
      13     1     3     3     0     0 -6.228024314E+01  4.809515271E+01 -1.912804493E+00  7.871240299E+01  1.056583668E-01  0.00000E+00  9.000E+00
     -13     1     3     3     0     0  1.386644799E+01 -2.275400012E+01 -8.879828603E+00  2.808710418E+01  1.056583668E-01  0.00000E+00  9.000E+00
      -5     1     1     2     0   511  4.841379515E+01 -2.534115259E+01  1.261399121E+02  1.374676217E+02  0.000000000E+00  0.00000E+00  9.000E+00
#pdf   5 -5 0.63336121E-02 0.77576008E-02 0.91124005E+02 0.30271059E+00 0.26418127E+00
#rwgt            1          10   128.10052917305367         54217137    18468368           0
</event>
<event>
      6  10013  3.31628E+03  1.35891E+01 -1.00000E+00  1.81473E-01
       3    -1     0     0   501     0  0.000000000E+00  0.000000000E+00  6.201911990E+00  6.201911990E+00  0.000000000E+00  0.00000E+00  9.000E+00
      21    -1     0     0   511   501  0.000000000E+00  0.000000000E+00 -1.080729796E+03  1.080729796E+03  0.000000000E+00  0.00000E+00  9.000E+00
      23     2     1     2     0     0 -1.143571360E+00 -1.354093911E+01 -3.413733114E+02  3.536512076E+02  9.137162674E+01  0.00000E+00  9.000E+00
      13     1     3     3     0     0  6.475254961E+00  3.886228431E+01 -1.416460581E+02  1.470232057E+02  1.056583668E-01  0.00000E+00  9.000E+00
     -13     1     3     3     0     0 -7.618826320E+00 -5.240322342E+01 -1.997272532E+02  2.066280019E+02  1.056583668E-01  0.00000E+00  9.000E+00
       3     1     1     2   511     0  1.143571360E+00  1.354093911E+01 -7.331545727E+02  7.332805004E+02  0.000000000E+00  0.00000E+00  9.000E+00
#pdf   3 -3 0.93417862E-03 0.52881783E-01 0.91371627E+02 0.14481254E+01 0.14184384E+00
#rwgt            1           8   271.79602197421906         54217137    18468443           0
</event>
<event>
      6  10013  3.31628E+03  5.28823E+00 -1.00000E+00  2.34256E-01
       2    -1     0     0   511     0  0.000000000E+00  0.000000000E+00  3.129798383E+02  3.129798383E+02  0.000000000E+00  0.00000E+00  9.000E+00
      -2    -1     0     0     0   501  0.000000000E+00  0.000000000E+00 -8.123314252E-01  8.123314252E-01  0.000000000E+00  0.00000E+00  9.000E+00
      23     2     1     2     0     0  5.239306481E+00  7.176657066E-01  2.255765662E+02  2.270398995E+02  2.518657152E+01  0.00000E+00  9.000E+00
      13     1     3     3     0     0  4.409609621E+00 -4.774684315E+00  1.450143374E+01  1.589166484E+01  1.056583668E-01  0.00000E+00  9.000E+00
     -13     1     3     3     0     0  8.296968596E-01  5.492350022E+00  2.110751324E+02  2.111482347E+02  1.056583668E-01  0.00000E+00  9.000E+00
      21     1     1     2   511   501 -5.239306481E+00 -7.176657066E-01  8.659094074E+01  8.675227026E+01  1.348699152E-06  0.00000E+00  9.000E+00
#pdf   2 -2 0.34073696E-01 0.11016209E-03 0.25186572E+02 0.62703413E+00 0.23134615E+01
#rwgt            1           7   1729.4592820955106         54217137    18468468           0
</event>
<event>
      6  10013  3.31628E+03  4.77684E+01 -1.00000E+00  1.40187E-01
      21    -1     0     0   501   511  0.000000000E+00  0.000000000E+00  2.908322756E+02  2.908322756E+02  0.000000000E+00  0.00000E+00  9.000E+00
      -2    -1     0     0     0   501  0.000000000E+00  0.000000000E+00 -2.525058288E+01  2.525058288E+01  0.000000000E+00  0.00000E+00  9.000E+00
      23     2     1     2     0     0  4.771149114E+01 -2.330498662E+00  2.425662688E+02  2.630590209E+02  8.988790859E+01  0.00000E+00  9.000E+00
      13     1     3     3     0     0  2.473266737E+01  1.047876722E+01  2.337865328E+02  2.353245917E+02  1.056583668E-01  0.00000E+00  9.000E+00
     -13     1     3     3     0     0  2.297882377E+01 -1.280926589E+01  8.779736041E+00  2.773442920E+01  1.056583668E-01  0.00000E+00  9.000E+00
      -2     1     1     2     0   511 -4.771149114E+01  2.330498662E+00  2.301542390E+01  5.302383754E+01  0.000000000E+00  0.00000E+00  9.000E+00
#pdf   2 -2 0.34345684E-01 0.13920142E-02 0.89887909E+02 0.64629819E+00 0.12663937E+01
#rwgt            1           7   766.85117197166153         54217137    18468561           0
</event>
<event>
      6  10013  3.31628E+03  2.86640E+01 -1.00000E+00  1.54391E-01
       2    -1     0     0   501     0  0.000000000E+00  0.000000000E+00  2.685214139E+02  2.685214139E+02  0.000000000E+00  0.00000E+00  9.000E+00
      -2    -1     0     0     0   511  0.000000000E+00  0.000000000E+00 -2.239401670E+01  2.239401670E+01  0.000000000E+00  0.00000E+00  9.000E+00
      23     2     1     2     0     0 -2.005063755E+01  2.048403983E+01  2.450238438E+02  2.622302117E+02  8.891780456E+01  0.00000E+00  9.000E+00
      13     1     3     3     0     0 -9.161406612E+00  5.219835230E+01  1.945057852E+02  2.015964062E+02  1.056583668E-01  0.00000E+00  9.000E+00
     -13     1     3     3     0     0 -1.088923094E+01 -3.171431248E+01  5.051805861E+01  6.063380555E+01  1.056583668E-01  0.00000E+00  9.000E+00
      21     1     1     2   501   511  2.005063755E+01 -2.048403983E+01  1.103553462E+00  2.868521891E+01  3.833973506E-07  0.00000E+00  9.000E+00
#pdf   2 -2 0.37137575E-01 0.12597293E-02 0.88917805E+02 0.64300784E+00 0.13161279E+01
#rwgt            1           7   873.42386909692232         54217137    18468660           0
</event>
<event>
      6  10013  3.31628E+03  2.97991E+01 -1.00000E+00  1.53208E-01
      -1    -1     0     0     0   501  0.000000000E+00  0.000000000E+00  1.676111332E+03  1.676111332E+03  0.000000000E+00  0.00000E+00  9.000E+00
      21    -1     0     0   501   511  0.000000000E+00  0.000000000E+00 -2.492374848E+00  2.492374848E+00  0.000000000E+00  0.00000E+00  9.000E+00
      23     2     1     2     0     0 -2.266803593E+01 -1.934279629E+01  1.422728215E+03  1.425949500E+03  9.104075924E+01  0.00000E+00  9.000E+00
      13     1     3     3     0     0 -3.387832134E+01  2.874702532E+01  8.195053218E+02  8.207089105E+02  1.056583668E-01  0.00000E+00  9.000E+00
     -13     1     3     3     0     0  1.121028541E+01 -4.808982161E+01  6.032228932E+02  6.052405898E+02  1.056583668E-01  0.00000E+00  9.000E+00
      -1     1     1     2     0   511  2.266803593E+01  1.934279629E+01  2.508907419E+02  2.526542064E+02  0.000000000E+00  0.00000E+00  9.000E+00
#pdf  -1  1 0.20825699E+00 0.23549704E-03 0.91040759E+02 0.32076385E-01 0.25313652E+01
#rwgt            1           5   135.73478762585000         54217137    18468715           0
</event>
<event>
      6  10013  3.31628E+03  5.18636E+01 -1.00000E+00  1.38146E-01
      -2    -1     0     0     0   511  0.000000000E+00  0.000000000E+00  6.260783093E+01  6.260783093E+01  0.000000000E+00  0.00000E+00  9.000E+00
       2    -1     0     0   501     0  0.000000000E+00  0.000000000E+00 -1.213099280E+02  1.213099280E+02  0.000000000E+00  0.00000E+00  9.000E+00
      23     2     1     2     0     0 -1.625678592E+00 -5.183810856E+01 -1.010003579E+02  1.169926128E+02  2.821997207E+01  0.00000E+00  9.000E+00
      13     1     3     3     0     0  9.295592766E+00 -4.255936052E+00 -1.732789052E+01  2.011934368E+01  1.056583668E-01  0.00000E+00  9.000E+00
     -13     1     3     3     0     0 -1.092127136E+01 -4.758217251E+01 -8.367246735E+01  9.687326909E+01  1.056583668E-01  0.00000E+00  9.000E+00
      21     1     1     2   501   511  1.625678592E+00  5.183810856E+01  4.229826076E+01  6.692514620E+01  8.259061849E-07  0.00000E+00  9.000E+00
#pdf  -2  2 0.58795872E-03 0.80145588E-02 0.28219972E+02 0.13894232E+01 0.72113757E+00
#rwgt            1           4   839.41612059298348         54217137    18468787           0
</event>
<event>
      6  10013  3.31628E+03  1.96941E+01 -1.00000E+00  1.66881E-01
      21    -1     0     0   511   501  0.000000000E+00  0.000000000E+00  2.177275629E+01  2.177275629E+01  0.000000000E+00  0.00000E+00  9.000E+00
       2    -1     0     0   501     0  0.000000000E+00  0.000000000E+00 -3.634588747E+01  3.634588747E+01  0.000000000E+00  0.00000E+00  9.000E+00
      23     2     1     2     0     0 -1.969406636E+01  6.472623924E-03  6.254494556E+00  2.945427066E+01  2.098997538E+01  0.00000E+00  9.000E+00
      13     1     3     3     0     0 -5.179257189E-01 -6.123991557E+00 -3.510459092E+00  7.078559625E+00  1.056583668E-01  0.00000E+00  9.000E+00
     -13     1     3     3     0     0 -1.917614064E+01  6.130464181E+00  9.764953647E+00  2.237571104E+01  1.056583668E-01  0.00000E+00  9.000E+00
       2     1     1     2   511     0  1.969406636E+01 -6.472623924E-03 -2.082762573E+01  2.866437310E+01  0.000000000E+00  0.00000E+00  9.000E+00
#pdf  -2  2 0.20031529E-02 0.13014367E-02 0.20989975E+02 0.84968174E+00 0.10615725E+01
#rwgt            1           4   760.38444557709943         54217137    18468944           0
</event>
<event>
      6  10013  3.31628E+03  1.36194E+00 -1.00000E+00  4.79951E-01
      21    -1     0     0   501   511  0.000000000E+00  0.000000000E+00  5.407628714E+00  5.407628714E+00  0.000000000E+00  0.00000E+00  9.000E+00
      -2    -1     0     0     0   501  0.000000000E+00  0.000000000E+00 -2.732790386E+01  2.732790386E+01  0.000000000E+00  0.00000E+00  9.000E+00
      23     2     1     2     0     0 -1.064242071E+00 -8.498614759E-01 -2.225460411E+01  3.133315903E+01  2.201464455E+01  0.00000E+00  9.000E+00
      13     1     3     3     0     0  9.225060576E+00 -2.847860434E+00 -1.713420236E+01  1.966733602E+01  1.056583668E-01  0.00000E+00  9.000E+00
     -13     1     3     3     0     0 -1.028930265E+01  1.997998958E+00 -5.120401749E+00  1.166582301E+01  1.056583668E-01  0.00000E+00  9.000E+00
      -2     1     1     2     0   511  1.064242071E+00  8.498614759E-01  3.343289635E-01  1.402373548E+00  0.000000000E+00  0.00000E+00  9.000E+00
#pdf   2 -2 0.69701781E-03 0.41142699E-02 0.22014645E+02 0.12847602E+01 0.65808215E+00
#rwgt            1           7   704.04354591565402         54217137    18468987           0
</event>
<event>
      6  10013  3.31628E+03  9.33178E+00 -1.00000E+00  1.99234E-01
      -2    -1     0     0     0   501  0.000000000E+00  0.000000000E+00  4.136437014E+01  4.136437014E+01  0.000000000E+00  0.00000E+00  9.000E+00
      21    -1     0     0   501   511  0.000000000E+00  0.000000000E+00 -6.672693940E+01  6.672693940E+01  0.000000000E+00  0.00000E+00  9.000E+00
      23     2     1     2     0     0  7.596398734E+00 -5.420036580E+00 -3.116306457E+01  9.710368851E+01  9.149266450E+01  0.00000E+00  9.000E+00
      13     1     3     3     0     0  9.067388542E+00 -2.614966230E+01 -5.734591692E+01  6.367564467E+01  1.056583668E-01  0.00000E+00  9.000E+00
     -13     1     3     3     0     0 -1.470989808E+00  2.072962572E+01  2.618285235E+01  3.342804383E+01  1.056583668E-01  0.00000E+00  9.000E+00
      -2     1     1     2     0   511 -7.596398734E+00  5.420036580E+00  5.800495311E+00  1.098762104E+01  0.000000000E+00  0.00000E+00  9.000E+00
#pdf  -2  2 0.50461761E-02 0.98157491E-02 0.91492665E+02 0.72917839E+00 0.76599840E+00
#rwgt            1           4   600.40306321493563         54217137    18469154           0
</event>
<event>
      6  10013  3.31628E+03  1.62633E+01 -1.00000E+00  1.74092E-01
      -2    -1     0     0     0   511  0.000000000E+00  0.000000000E+00  3.043985496E+02  3.043985496E+02  0.000000000E+00  0.00000E+00  9.000E+00
       2    -1     0     0   501     0  0.000000000E+00  0.000000000E+00 -4.268660112E+00  4.268660112E+00  0.000000000E+00  0.00000E+00  9.000E+00
      23     2     1     2     0     0  1.496913296E+01  6.357702760E+00  1.088445644E+02  1.166917662E+02  3.879863101E+01  0.00000E+00  9.000E+00
      13     1     3     3     0     0  4.323133093E+00 -1.638029987E+01  4.206687362E+01  4.535015682E+01  1.056583668E-01  0.00000E+00  9.000E+00
     -13     1     3     3     0     0  1.064599987E+01  2.273800263E+01  6.677769079E+01  7.134160937E+01  1.056583668E-01  0.00000E+00  9.000E+00
      21     1     1     2   501   511 -1.496913296E+01 -6.357702760E+00  1.912853251E+02  1.919754435E+02  3.814697266E-06  0.00000E+00  9.000E+00
#pdf  -2  2 0.16000144E-01 0.55670126E-03 0.38798631E+02 0.38347984E+00 0.15769513E+01
#rwgt            1           4   640.23422464395196         54217137    18469222           0
</event>
<event>
      6  10013  3.31628E+03  4.66579E+00 -1.00000E+00  2.48554E-01
      21    -1     0     0   511   501  0.000000000E+00  0.000000000E+00  7.976200975E-01  7.976200975E-01  0.000000000E+00  0.00000E+00  9.000E+00
       2    -1     0     0   501     0  0.000000000E+00  0.000000000E+00 -3.523385529E+02  3.523385529E+02  0.000000000E+00  0.00000E+00  9.000E+00
      23     2     1     2     0     0 -5.734069851E-01 -4.630417494E+00 -3.341103018E+02  3.350918814E+02  2.520130267E+01  0.00000E+00  9.000E+00
      13     1     3     3     0     0 -3.760298615E-01  6.482162459E+00 -2.661074871E+02  2.661867120E+02  1.056583668E-01  0.00000E+00  9.000E+00
     -13     1     3     3     0     0 -1.973771236E-01 -1.111257995E+01 -6.800281475E+01  6.890516939E+01  1.056583668E-01  0.00000E+00  9.000E+00
       2     1     1     2   511     0  5.734069851E-01  4.630417494E+00 -1.743063099E+01  1.804429158E+01  0.000000000E+00  0.00000E+00  9.000E+00
#pdf  -2  2 0.74244404E-04 0.50616901E-01 0.25201303E+02 0.26140065E+01 0.62723166E+00
#rwgt            1           4   1705.1815233285724         54217137    18469263           0
</event>
<event>
      6  10013  3.31628E+03  1.63671E+01 -1.00000E+00  1.73842E-01
      -1    -1     0     0     0   501  0.000000000E+00  0.000000000E+00  3.802118397E+02  3.802118397E+02  0.000000000E+00  0.00000E+00  9.000E+00
      21    -1     0     0   501   511  0.000000000E+00  0.000000000E+00 -1.283283061E+01  1.283283061E+01  0.000000000E+00  0.00000E+00  9.000E+00
      23     2     1     2     0     0  1.607807708E+01 -3.062190723E+00  1.675398078E+02  1.925363465E+02  9.344932275E+01  0.00000E+00  9.000E+00
      13     1     3     3     0     0 -1.262308842E+01 -2.838638380E+01  1.360676600E+01  3.391584277E+01  1.056583668E-01  0.00000E+00  9.000E+00
     -13     1     3     3     0     0  2.870116550E+01  2.532419307E+01  1.539330418E+02  1.586205037E+02  1.056583668E-01  0.00000E+00  9.000E+00
      -1     1     1     2     0   511 -1.607807708E+01  3.062190723E+00  1.998392013E+02  2.005083239E+02  0.000000000E+00  0.00000E+00  9.000E+00
#pdf  -1  1 0.27282870E-01 0.18939808E-02 0.93449323E+02 0.31771302E+00 0.11940703E+01
#rwgt            1           5   593.09735698824477         54217137    18469432           0
</event>
<event>
      6  10013  3.31628E+03  4.78331E+01 -1.00000E+00  1.40153E-01
      21    -1     0     0   511   501  0.000000000E+00  0.000000000E+00  1.273034110E+02  1.273034110E+02  0.000000000E+00  0.00000E+00  9.000E+00
       3    -1     0     0   501     0  0.000000000E+00  0.000000000E+00 -5.701245660E+02  5.701245660E+02  0.000000000E+00  0.00000E+00  9.000E+00
      23     2     1     2     0     0 -4.409494452E+01 -1.853746635E+01 -5.351214694E+02  5.934695726E+02  2.521173236E+02  0.00000E+00  9.000E+00
      13     1     3     3     0     0 -1.326924402E+02 -6.407431672E+01 -3.946542957E+02  4.212657428E+02  1.056583668E-01  0.00000E+00  9.000E+00
     -13     1     3     3     0     0  8.859749565E+01  4.553685037E+01 -1.404671737E+02  1.722038299E+02  1.056583668E-01  0.00000E+00  9.000E+00
       3     1     1     2   511     0  4.409494452E+01  1.853746635E+01  9.230031442E+01  1.039584043E+02  0.000000000E+00  0.00000E+00  9.000E+00
#pdf  -3  3 0.44096529E-02 0.85293172E-01 0.25211732E+03 0.81964701E+00 0.77515550E-01
#rwgt            1           3   199.98402357082222         54217137    18469475           0
</event>
<event>
      6  10013  3.31628E+03  2.06297E+00 -1.00000E+00  3.56697E-01
      21    -1     0     0   501   511  0.000000000E+00  0.000000000E+00  4.435945205E+01  4.435945205E+01  0.000000000E+00  0.00000E+00  9.000E+00
      -2    -1     0     0     0   501  0.000000000E+00  0.000000000E+00 -3.424988980E+00  3.424988980E+00  0.000000000E+00  0.00000E+00  9.000E+00
      23     2     1     2     0     0 -2.062833833E+00 -2.348008607E-02  3.071919930E+01  3.736295128E+01  2.116754799E+01  0.00000E+00  9.000E+00
      13     1     3     3     0     0  8.282791174E+00  4.750853021E+00  1.728361612E+01  1.974613339E+01  1.056583668E-01  0.00000E+00  9.000E+00
     -13     1     3     3     0     0 -1.034562501E+01 -4.774333107E+00  1.343558319E+01  1.761681789E+01  1.056583668E-01  0.00000E+00  9.000E+00
      -2     1     1     2     0   511  2.062833833E+00  2.348008607E-02  1.021526377E+01  1.042148975E+01  0.000000000E+00  0.00000E+00  9.000E+00
#pdf   2 -2 0.52123927E-02 0.50864792E-03 0.21167548E+02 0.75466833E+00 0.13516332E+01
#rwgt            1           7   517.73122381949986         54217137    18469516           0
</event>
<event>
      6  10013  3.31628E+03  3.38479E+00 -1.00000E+00  2.81695E-01
       3    -1     0     0   511     0  0.000000000E+00  0.000000000E+00  6.460762967E+01  6.460762967E+01  0.000000000E+00  0.00000E+00  9.000E+00
      -3    -1     0     0     0   501  0.000000000E+00  0.000000000E+00 -3.575361899E+01  3.575361899E+01  0.000000000E+00  0.00000E+00  9.000E+00
      23     2     1     2     0     0  4.077985338E-01 -3.360138451E+00  2.378457209E+01  9.426567341E+01  9.115291813E+01  0.00000E+00  9.000E+00
      13     1     3     3     0     0  2.541045216E+01  2.003163374E+01 -2.048810565E+01  3.829792509E+01  1.056583668E-01  0.00000E+00  9.000E+00
     -13     1     3     3     0     0 -2.500265362E+01 -2.339177219E+01  4.427267774E+01  5.596774832E+01  1.056583668E-01  0.00000E+00  9.000E+00
      21     1     1     2   511   501 -4.077985338E-01  3.360138451E+00  5.069438590E+00  6.095575253E+00  1.032382731E-07  0.00000E+00  9.000E+00
#pdf   3 -3 0.90745340E-02 0.54178892E-02 0.91152918E+02 0.51570499E+00 0.67206195E+00
#rwgt            1           8   355.25736910243643         54217137    18469675           0
</event>
<event>
      6  10013  3.31628E+03  8.09397E+00 -1.00000E+00  2.06944E-01
      -2    -1     0     0     0   511  0.000000000E+00  0.000000000E+00  1.491140487E+00  1.491140487E+00  0.000000000E+00  0.00000E+00  9.000E+00
       2    -1     0     0   501     0  0.000000000E+00  0.000000000E+00 -1.567079293E+02  1.567079293E+02  0.000000000E+00  0.00000E+00  9.000E+00
      23     2     1     2     0     0 -1.781453613E+00 -7.895490639E+00 -1.184085886E+02  1.205114598E+02  2.090228984E+01  0.00000E+00  9.000E+00
      13     1     3     3     0     0 -3.542597802E+00 -1.103388653E+01 -3.210258727E+01  3.413039590E+01  1.056583668E-01  0.00000E+00  9.000E+00
     -13     1     3     3     0     0  1.761144189E+00  3.138395893E+00 -8.630600137E+01  8.638106386E+01  1.056583668E-01  0.00000E+00  9.000E+00
      21     1     1     2   501   511  1.781453613E+00  7.895490639E+00 -3.680820014E+01  3.768761000E+01  0.000000000E+00  0.00000E+00  9.000E+00
#pdf  -2  2 0.15084487E-03 0.17138408E-01 0.20902290E+02 0.19752038E+01 0.63770444E+00
#rwgt            1           4   1325.5246104147770         54217137    18469793           0
</event>
<event>
      6  10013  3.31628E+03  1.59148E+01 -1.00000E+00  1.74949E-01
      21    -1     0     0   511   501  0.000000000E+00  0.000000000E+00  1.711981941E-01  1.711981941E-01  0.000000000E+00  0.00000E+00  9.000E+00
       2    -1     0     0   501     0  0.000000000E+00  0.000000000E+00 -2.749153975E+03  2.749153975E+03  0.000000000E+00  0.00000E+00  9.000E+00
      23     2     1     2     0     0 -6.375163151E-01 -1.590203378E+01 -1.391624603E+03  1.391873704E+03  2.097830243E+01  0.00000E+00  9.000E+00
      13     1     3     3     0     0 -1.018565215E+01 -9.768006316E+00 -5.900078613E+02  5.901766253E+02  1.056583668E-01  0.00000E+00  9.000E+00
     -13     1     3     3     0     0  9.548135838E+00 -6.134027462E+00 -8.016167420E+02  8.016970783E+02  1.056583668E-01  0.00000E+00  9.000E+00
       2     1     1     2   511     0  6.375163151E-01  1.590203378E+01 -1.357358173E+03  1.357451469E+03  0.000000000E+00  0.00000E+00  9.000E+00
#pdf  -2  2 0.15265767E-04 0.17058284E+00 0.20978302E+02 0.39028336E+01 0.57976892E+00
#rwgt            1           4   3540.8842333182847         54217137    18469862           0
</event>
<event>
      6  10013  3.31628E+03  6.50228E+00 -1.00000E+00  2.20108E-01
      -3    -1     0     0     0   511  0.000000000E+00  0.000000000E+00  1.302123431E+02  1.302123431E+02  0.000000000E+00  0.00000E+00  9.000E+00
       3    -1     0     0   501     0  0.000000000E+00  0.000000000E+00 -1.852472144E+01  1.852472144E+01  0.000000000E+00  0.00000E+00  9.000E+00
      23     2     1     2     0     0 -5.875637455E+00 -2.785052466E+00  1.034740655E+02  1.382612764E+02  9.147140911E+01  0.00000E+00  9.000E+00
      13     1     3     3     0     0 -5.957396104E+00 -4.332827672E+01  2.616272641E+01  5.096400248E+01  1.056583668E-01  0.00000E+00  9.000E+00
     -13     1     3     3     0     0  8.175864954E-02  4.054322425E+01  7.731133908E+01  8.729727391E+01  1.056583668E-01  0.00000E+00  9.000E+00
      21     1     1     2   501   511  5.875637455E+00  2.785052466E+00  8.213556159E+00  1.047578816E+01  1.192092896E-07  0.00000E+00  9.000E+00
#pdf  -3  3 0.18548222E-01 0.26692039E-02 0.91471409E+02 0.33683394E+00 0.93315617E+00
#rwgt            1           3   403.39364435487801         54217137    18469906           0
</event>
<event>
      6  10013  3.31628E+03  2.06117E+01 -1.00000E+00  1.65256E-01
      -2    -1     0     0     0   501  0.000000000E+00  0.000000000E+00  5.944886846E+00  5.944886846E+00  0.000000000E+00  0.00000E+00  9.000E+00
       2    -1     0     0   511     0  0.000000000E+00  0.000000000E+00 -5.681469652E+02  5.681469652E+02  0.000000000E+00  0.00000E+00  9.000E+00
      23     2     1     2     0     0  2.773824328E+00  2.042422636E+01 -4.023767651E+02  4.129429337E+02  9.049841041E+01  0.00000E+00  9.000E+00
      13     1     3     3     0     0 -1.764186965E+01  3.344896840E+01 -6.896398665E+01  7.865183832E+01  1.056583668E-01  0.00000E+00  9.000E+00
     -13     1     3     3     0     0  2.041569398E+01 -1.302474204E+01 -3.334127785E+02  3.342910954E+02  1.056583668E-01  0.00000E+00  9.000E+00
      21     1     1     2   511   501 -2.773824328E+00 -2.042422636E+01 -1.598253133E+02  1.611489183E+02  3.814697266E-06  0.00000E+00  9.000E+00
#pdf  -2  2 0.79248746E-03 0.61150892E-01 0.90498410E+02 0.15852408E+01 0.62674599E+00
#rwgt            1           4   978.94137797970529         54217137    18469993           0
</event>
<event>
      6  10013  3.31628E+03  2.82233E+00 -1.00000E+00  3.05005E-01
      -1    -1     0     0     0   511  0.000000000E+00  0.000000000E+00  8.562635141E+02  8.562635141E+02  0.000000000E+00  0.00000E+00  9.000E+00
       1    -1     0     0   501     0  0.000000000E+00  0.000000000E+00 -3.093589569E+00  3.093589569E+00  0.000000000E+00  0.00000E+00  9.000E+00
      23     2     1     2     0     0 -1.960245633E-01 -2.815509899E+00  6.682560196E+02  6.744216615E+02  9.094231297E+01  0.00000E+00  9.000E+00
      13     1     3     3     0     0  3.167410619E+01 -3.142957459E+01  2.474009499E+02  2.513927373E+02  1.056583668E-01  0.00000E+00  9.000E+00
     -13     1     3     3     0     0 -3.187013075E+01  2.861406469E+01  4.208550696E+02  4.230289242E+02  1.056583668E-01  0.00000E+00  9.000E+00
      21     1     1     2   501   511  1.960245633E-01  2.815509899E+00  1.849139049E+02  1.849354421E+02  3.814697266E-06  0.00000E+00  9.000E+00
#pdf  -1  1 0.10323320E+00 0.47405192E-03 0.90942313E+02 0.11049062E+00 0.19683043E+01
#rwgt            1           5   288.98977556559385         54217137    18470087           0
</event>
<event>
      6  10013  3.31628E+03  9.92274E+00 -1.00000E+00  1.96089E-01
       2    -1     0     0   501     0  0.000000000E+00  0.000000000E+00  5.561208120E+01  5.561208120E+01  0.000000000E+00  0.00000E+00  9.000E+00
      -2    -1     0     0     0   511  0.000000000E+00  0.000000000E+00 -1.284905125E+02  1.284905125E+02  0.000000000E+00  0.00000E+00  9.000E+00
      23     2     1     2     0     0 -2.473701542E+00 -9.609454887E+00  1.511197165E+01  9.555446084E+01  9.382868686E+01  0.00000E+00  9.000E+00
      13     1     3     3     0     0 -3.076049948E+00 -3.236698206E+01  4.652477380E+01  5.675957498E+01  1.056583668E-01  0.00000E+00  9.000E+00
     -13     1     3     3     0     0  6.023484063E-01  2.275752717E+01 -3.141280215E+01  3.879488586E+01  1.056583668E-01  0.00000E+00  9.000E+00
      21     1     1     2   501   511  2.473701542E+00  9.609454887E+00 -8.799040296E+01  8.854813287E+01  9.536743164E-07  0.00000E+00  9.000E+00
#pdf   2 -2 0.84655951E-02 0.61535691E-02 0.93828687E+02 0.79279678E+00 0.66586254E+00
#rwgt            1           7   637.23285355574615         54217137    18470249           0
</event>
<event>
      6  10013  3.31628E+03  7.28418E+00 -1.00000E+00  2.13070E-01
      -1    -1     0     0     0   501  0.000000000E+00  0.000000000E+00  9.201963469E+00  9.201963469E+00  0.000000000E+00  0.00000E+00  9.000E+00
      21    -1     0     0   501   511  0.000000000E+00  0.000000000E+00 -2.787362250E+02  2.787362250E+02  0.000000000E+00  0.00000E+00  9.000E+00
      23     2     1     2     0     0  3.021695641E+00  6.627873193E+00 -2.273542266E+02  2.451338114E+02  9.136510166E+01  0.00000E+00  9.000E+00
      13     1     3     3     0     0  4.700547823E+00 -1.946609663E+01 -4.211049641E+00  2.046382590E+01  1.056583668E-01  0.00000E+00  9.000E+00
     -13     1     3     3     0     0 -1.678852181E+00  2.609396982E+01 -2.231431770E+02  2.246699855E+02  1.056583668E-01  0.00000E+00  9.000E+00
      -1     1     1     2     0   511 -3.021695641E+00 -6.627873193E+00 -4.218003489E+01  4.280437700E+01  0.000000000E+00  0.00000E+00  9.000E+00
#pdf  -1  1 0.13633344E-02 0.36230272E-01 0.91365102E+02 0.12889230E+01 0.47991936E+00
#rwgt            1           5   688.84650372669716         54217137    18470317           0
</event>
<event>
      6  10013  3.31628E+03  8.69081E+01 -1.00000E+00  1.26609E-01
      21    -1     0     0   511   501  0.000000000E+00  0.000000000E+00  8.707643307E+01  8.707643307E+01  0.000000000E+00  0.00000E+00  9.000E+00
       3    -1     0     0   501     0  0.000000000E+00  0.000000000E+00 -1.474117782E+02  1.474117782E+02  0.000000000E+00  0.00000E+00  9.000E+00
      23     2     1     2     0     0 -2.304403434E+01 -8.379730487E+01  3.688263582E+00  1.265436037E+02  9.190573723E+01  0.00000E+00  9.000E+00
      13     1     3     3     0     0 -4.538908976E+01 -9.185906455E+01  6.245689248E+00  1.026512397E+02  1.056583668E-01  0.00000E+00  9.000E+00
     -13     1     3     3     0     0  2.234505542E+01  8.061759672E+00 -2.557425666E+00  2.389236406E+01  1.056583668E-01  0.00000E+00  9.000E+00
       3     1     1     2   511     0  2.304403434E+01  8.379730487E+01 -6.402360871E+01  1.079446075E+02  0.000000000E+00  0.00000E+00  9.000E+00
#pdf  -3  3 0.72788184E-02 0.68665353E-02 0.91905737E+02 0.57993944E+00 0.59755364E+00
#rwgt            1           3   355.45780289697257         54217137    18470390           0
</event>
<event>
      6  10013  3.31628E+03  2.40664E+00 -1.00000E+00  3.29124E-01
      21    -1     0     0   511   501  0.000000000E+00  0.000000000E+00  3.535069632E-01  3.535069632E-01  0.000000000E+00  0.00000E+00  9.000E+00
       2    -1     0     0   501     0  0.000000000E+00  0.000000000E+00 -3.676130593E+02  3.676130593E+02  0.000000000E+00  0.00000E+00  9.000E+00
      23     2     1     2     0     0 -2.935786323E-02 -2.406459203E+00 -3.413854438E+02  3.419807740E+02  2.002589895E+01  0.00000E+00  9.000E+00
      13     1     3     3     0     0 -3.001090857E+00 -6.639080496E+00 -4.801712442E+01  4.856685431E+01  1.056583668E-01  0.00000E+00  9.000E+00
     -13     1     3     3     0     0  2.971732994E+00  4.232621293E+00 -2.933683194E+02  2.934139197E+02  1.056583668E-01  0.00000E+00  9.000E+00
       2     1     1     2   511     0  2.935786323E-02  2.406459203E+00 -2.587410850E+01  2.598579224E+01  0.000000000E+00  0.00000E+00  9.000E+00
#pdf  -2  2 0.45467478E-04 0.52191102E-01 0.20025899E+02 0.27904381E+01 0.62564076E+00
#rwgt            1           4   2289.9189688338479         54217137    18470490           0
</event>
<event>
      6  10013  3.31628E+03  1.46793E+01 -1.00000E+00  1.78224E-01
       2    -1     0     0   501     0  0.000000000E+00  0.000000000E+00  1.415200395E+03  1.415200395E+03  0.000000000E+00  0.00000E+00  9.000E+00
      21    -1     0     0   511   501  0.000000000E+00  0.000000000E+00 -3.717035426E-01  3.717035426E-01  0.000000000E+00  0.00000E+00  9.000E+00
      23     2     1     2     0     0 -1.155240490E+01  9.056748853E+00  1.190067547E+03  1.190332105E+03  2.035363237E+01  0.00000E+00  9.000E+00
      13     1     3     3     0     0 -1.264831853E+01  1.630122551E+00  3.520481898E+02  3.522791171E+02  1.056583668E-01  0.00000E+00  9.000E+00
     -13     1     3     3     0     0  1.095913636E+00  7.426626302E+00  8.380193572E+02  8.380529876E+02  1.056583668E-01  0.00000E+00  9.000E+00
       2     1     1     2   511     0  1.155240490E+01 -9.056748853E+00  2.247611447E+02  2.252399940E+02  0.000000000E+00  0.00000E+00  9.000E+00
#pdf   2 -2 0.14851260E+00 0.16505697E-04 0.20353632E+02 0.60043274E+00 0.37694522E+01
#rwgt            1           7   2593.1976025770637         54217137    18470619           0
</event>
<event>
      6  10013  3.31628E+03  1.22857E+01 -1.00000E+00  1.85908E-01
       1    -1     0     0   501     0  0.000000000E+00  0.000000000E+00  1.268956450E+03  1.268956450E+03  0.000000000E+00  0.00000E+00  9.000E+00
      21    -1     0     0   511   501  0.000000000E+00  0.000000000E+00 -3.317229977E+00  3.317229977E+00  0.000000000E+00  0.00000E+00  9.000E+00
      23     2     1     2     0     0  9.297617171E+00 -8.030734569E+00  1.244201141E+03  1.247564783E+03  9.072193062E+01  0.00000E+00  9.000E+00
      13     1     3     3     0     0  1.494875918E+01  4.003132124E+01  6.437440605E+02  6.451607542E+02  1.056583668E-01  0.00000E+00  9.000E+00
     -13     1     3     3     0     0 -5.651142006E+00 -4.806205581E+01  6.004570808E+02  6.024040286E+02  1.056583668E-01  0.00000E+00  9.000E+00
       1     1     1     2   511     0 -9.297617171E+00  8.030734569E+00  2.143807851E+01  2.470889704E+01  0.000000000E+00  0.00000E+00  9.000E+00
#pdf   1 -1 0.18994056E+00 0.25640126E-03 0.90721931E+02 0.24300430E+00 0.24326618E+01
#rwgt            1           6   900.58051851542734         54217137    18470657           0
</event>
<event>
      6  10013  3.31628E+03  6.12169E+00 -1.00000E+00  2.24049E-01
       2    -1     0     0   501     0  0.000000000E+00  0.000000000E+00  1.033165112E+03  1.033165112E+03  0.000000000E+00  0.00000E+00  9.000E+00
      21    -1     0     0   511   501  0.000000000E+00  0.000000000E+00 -2.064617154E-01  2.064617154E-01  0.000000000E+00  0.00000E+00  9.000E+00
      23     2     1     2     0     0  5.191108944E+00 -3.244601426E+00  8.363142405E+02  8.366319006E+02  2.222506030E+01  0.00000E+00  9.000E+00
      13     1     3     3     0     0  1.049317923E+01 -9.966862070E+00  5.412081540E+02  5.414016275E+02  1.056583668E-01  0.00000E+00  9.000E+00
     -13     1     3     3     0     0 -5.302070291E+00  6.722260644E+00  2.951060865E+02  2.952302732E+02  1.056583668E-01  0.00000E+00  9.000E+00
       2     1     1     2   511     0 -5.191108944E+00  3.244601426E+00  1.966444101E+02  1.967396734E+02  0.000000000E+00  0.00000E+00  9.000E+00
#pdf   2 -2 0.12406783E+00 0.23558086E-04 0.22225060E+02 0.61452239E+00 0.35218726E+01
#rwgt            1           7   2224.2704221579033         54217137    18470746           0
</event>
<event>
      6  10013  3.31628E+03  4.85712E+01 -1.00000E+00  1.39769E-01
      -4    -1     0     0     0   501  0.000000000E+00  0.000000000E+00  9.485667510E+01  9.485667510E+01  0.000000000E+00  0.00000E+00  9.000E+00
      21    -1     0     0   501   511  0.000000000E+00  0.000000000E+00 -3.310533496E+01  3.310533496E+01  0.000000000E+00  0.00000E+00  9.000E+00
      23     2     1     2     0     0 -4.815104582E+01  6.374848373E+00  5.510395438E+01  7.893803997E+01  2.890685838E+01  0.00000E+00  9.000E+00
      13     1     3     3     0     0 -2.647028877E+01 -8.454598872E+00  1.673178545E+01  3.243640297E+01  1.056583668E-01  0.00000E+00  9.000E+00
     -13     1     3     3     0     0 -2.168075705E+01  1.482944724E+01  3.837216893E+01  4.650163700E+01  1.056583668E-01  0.00000E+00  9.000E+00
      -4     1     1     2     0   511  4.815104582E+01 -6.374848373E+00  6.647385762E+00  4.902397008E+01  0.000000000E+00  0.00000E+00  9.000E+00
#pdf  -4  4 0.52732545E-02 0.93764048E-03 0.28906858E+02 0.42000974E+00 0.90839127E+00
#rwgt            1           2   368.23004493704622         54217137    18470793           0
</event>
<event>
      6  10013  3.31628E+03  2.75601E+00 -1.00000E+00  3.08363E-01
      -3    -1     0     0     0   501  0.000000000E+00  0.000000000E+00  2.387051458E+00  2.387051458E+00  0.000000000E+00  0.00000E+00  9.000E+00
      21    -1     0     0   501   511  0.000000000E+00  0.000000000E+00 -7.256914835E+01  7.256914835E+01  0.000000000E+00  0.00000E+00  9.000E+00
      23     2     1     2     0     0 -8.008901802E-01  2.637074854E+00 -4.745135234E+01  5.205898738E+01  2.123468248E+01  0.00000E+00  9.000E+00
      13     1     3     3     0     0  1.160184354E+00  5.788694660E+00 -1.682568681E+00  6.139805751E+00  1.056583668E-01  0.00000E+00  9.000E+00
     -13     1     3     3     0     0 -1.961074534E+00 -3.151619806E+00 -4.576878366E+01  4.591918163E+01  1.056583668E-01  0.00000E+00  9.000E+00
      -3     1     1     2     0   511  8.008901802E-01 -2.637074854E+00 -2.273074455E+01  2.289721242E+01  0.000000000E+00  0.00000E+00  9.000E+00
#pdf  -3  3 0.35148545E-03 0.75909737E-02 0.21234682E+02 0.14716672E+01 0.47903084E+00
#rwgt            1           3   135.74345858887770         54217137    18470861           0
</event>
<event>
      6  10013  3.31628E+03  1.00712E+01 -1.00000E+00  1.95344E-01
      -3    -1     0     0     0   511  0.000000000E+00  0.000000000E+00  4.912264944E+00  4.912264944E+00  0.000000000E+00  0.00000E+00  9.000E+00
       3    -1     0     0   501     0  0.000000000E+00  0.000000000E+00 -4.857101636E+02  4.857101636E+02  0.000000000E+00  0.00000E+00  9.000E+00
      23     2     1     2     0     0  9.260245901E+00  3.959386667E+00 -4.534593435E+02  4.614878186E+02  8.511287588E+01  0.00000E+00  9.000E+00
      13     1     3     3     0     0 -1.808586094E+01 -1.204045627E+01 -3.895558259E+02  3.901612790E+02  1.056583668E-01  0.00000E+00  9.000E+00
     -13     1     3     3     0     0  2.734610685E+01  1.599984294E+01 -6.390351756E+01  7.132653962E+01  1.056583668E-01  0.00000E+00  9.000E+00
      21     1     1     2   501   511 -9.260245901E+00 -3.959386667E+00 -2.733855521E+01  2.913460997E+01  6.743495762E-07  0.00000E+00  9.000E+00
#pdf  -3  3 0.61329643E-03 0.69892952E-01 0.85112876E+02 0.16867766E+01 0.10352982E+00
#rwgt            1           3   240.08868563771671         54217137    18470996           0
</event>
<event>
      6  10013  3.31628E+03  2.46619E+01 -1.00000E+00  1.59157E-01
      21    -1     0     0   501   511  0.000000000E+00  0.000000000E+00  4.305620868E+00  4.305620868E+00  0.000000000E+00  0.00000E+00  9.000E+00
      -4    -1     0     0     0   501  0.000000000E+00  0.000000000E+00 -1.866417174E+02  1.866417174E+02  0.000000000E+00  0.00000E+00  9.000E+00
      23     2     1     2     0     0  1.854002458E+01 -1.626270440E+01 -1.088692609E+02  1.134516351E+02  2.026202064E+01  0.00000E+00  9.000E+00
      13     1     3     3     0     0  2.041127758E+01 -6.362488346E+00 -6.444376724E+01  6.789780416E+01  1.056583668E-01  0.00000E+00  9.000E+00
     -13     1     3     3     0     0 -1.871253001E+00 -9.900216055E+00 -4.442549367E+01  4.555383098E+01  1.056583668E-01  0.00000E+00  9.000E+00
      -4     1     1     2     0   511 -1.854002458E+01  1.626270440E+01 -7.346683566E+01  7.749570316E+01  0.000000000E+00  0.00000E+00  9.000E+00
#pdf   4 -4 0.22376623E-03 0.10856361E-01 0.20262021E+02 0.13415127E+01 0.25838587E+00
#rwgt            1           9   317.41062265337649         54217137    18471065           0
</event>
<event>
      6  10013  3.31628E+03  4.58205E+01 -1.00000E+00  1.41244E-01
       2    -1     0     0   501     0  0.000000000E+00  0.000000000E+00  4.322357688E+02  4.322357688E+02  0.000000000E+00  0.00000E+00  9.000E+00
      21    -1     0     0   511   501  0.000000000E+00  0.000000000E+00 -2.957834288E+01  2.957834288E+01  0.000000000E+00  0.00000E+00  9.000E+00
      23     2     1     2     0     0 -4.270697902E+01  1.660205195E+01  4.018484622E+02  4.159865151E+02  9.727836335E+01  0.00000E+00  9.000E+00
      13     1     3     3     0     0 -5.360104708E+01  2.293666643E+01  3.987754192E+02  4.030148993E+02  1.056583668E-01  0.00000E+00  9.000E+00
     -13     1     3     3     0     0  1.089406806E+01 -6.334614490E+00  3.073042994E+00  1.297161581E+01  1.056583668E-01  0.00000E+00  9.000E+00
       2     1     1     2   511     0  4.270697902E+01 -1.660205195E+01  8.089637043E-01  4.582759658E+01  0.000000000E+00  0.00000E+00  9.000E+00
#pdf   2 -2 0.56912930E-01 0.98386353E-03 0.97278363E+02 0.62895589E+00 0.14735294E+01
#rwgt            1           7   1082.3854893258613         54217137    18471128           0
</event>
<event>
      6  10013  3.31628E+03  4.74777E+00 -1.00000E+00  2.46988E-01
      -2    -1     0     0     0   501  0.000000000E+00  0.000000000E+00  6.911269121E-01  6.911269121E-01  0.000000000E+00  0.00000E+00  9.000E+00
       2    -1     0     0   511     0  0.000000000E+00  0.000000000E+00 -7.157122830E+02  7.157122830E+02  0.000000000E+00  0.00000E+00  9.000E+00
      23     2     1     2     0     0 -2.210100678E-01  4.742620067E+00 -5.604421920E+02  5.617515511E+02  3.803699932E+01  0.00000E+00  9.000E+00
      13     1     3     3     0     0 -1.197934972E+01 -1.014089832E+01 -3.780554755E+02  3.783811522E+02  1.056583668E-01  0.00000E+00  9.000E+00
     -13     1     3     3     0     0  1.175833965E+01  1.488351839E+01 -1.823867165E+02  1.833703989E+02  1.056583668E-01  0.00000E+00  9.000E+00
      21     1     1     2   511   501  2.210100678E-01 -4.742620067E+00 -1.545789641E+02  1.546518588E+02  2.697398305E-06  0.00000E+00  9.000E+00
#pdf  -2  2 0.99944377E-04 0.85657901E-01 0.38036999E+02 0.27086554E+01 0.62249275E+00
#rwgt            1           4   1670.4587521944818         54217137    18471194           0
</event>
<event>
      5  10013  3.31628E+03  8.94427E-01 -1.00000E+00  7.44306E-01
       2    -1     0     0   501     0  0.000000000E+00  0.000000000E+00  1.562852691E+01  1.562852691E+01  0.000000000E+00  0.00000E+00  9.000E+00
      -2    -1     0     0     0   501  0.000000000E+00  0.000000000E+00 -1.522604089E+01  1.522604089E+01  0.000000000E+00  0.00000E+00  9.000E+00
      23     2     1     2     0     0  0.000000000E+00  0.000000000E+00  4.024860234E-01  3.085456779E+01  3.085194254E+01  0.00000E+00  9.000E+00
      13     1     3     3     0     0 -2.532455315E-01  1.246111071E+00 -1.517317475E+01  1.522673050E+01  1.056583668E-01  0.00000E+00  9.000E+00
     -13     1     3     3     0     0  2.532455315E-01 -1.246111071E+00  1.557566078E+01  1.562783729E+01  1.056583668E-01  0.00000E+00  9.000E+00
#pdf   2 -2 0.24043888E-02 0.23424678E-02 0.30851943E+02 0.96579385E+00 0.86554119E+00
#rwgt            1           7   602.68000443026813         54217137    18471273           0
</event>
<event>
      6  10013  3.31628E+03  3.18071E+00 -1.00000E+00  2.89235E-01
       2    -1     0     0   501     0  0.000000000E+00  0.000000000E+00  2.408525551E+03  2.408525551E+03  0.000000000E+00  0.00000E+00  9.000E+00
      -2    -1     0     0     0   511  0.000000000E+00  0.000000000E+00 -1.135287134E-01  1.135287134E-01  0.000000000E+00  0.00000E+00  9.000E+00
      23     2     1     2     0     0 -3.472273356E-01  3.161701165E+00  2.340808130E+03  2.340960404E+03  2.651025773E+01  0.00000E+00  9.000E+00
      13     1     3     3     0     0  3.136266104E+00  7.500860110E+00  2.279822740E+02  2.281272177E+02  1.056583668E-01  0.00000E+00  9.000E+00
     -13     1     3     3     0     0 -3.483493439E+00 -4.339158945E+00  2.112825856E+03  2.112833186E+03  1.056583668E-01  0.00000E+00  9.000E+00
      21     1     1     2   501   511  3.472273356E-01 -3.161701165E+00  6.760389226E+01  6.767867589E+01  1.348699152E-06  0.00000E+00  9.000E+00
#pdf   2 -2 0.35757156E+00 0.11629960E-04 0.26510258E+02 0.31051908E+00 0.46379350E+01
#rwgt            1           7   12053.138335963207         54217137    18471500           0
</event>
<event>
      6  10013  3.31628E+03  8.76038E+00 -1.00000E+00  2.02582E-01
      -1    -1     0     0     0   501  0.000000000E+00  0.000000000E+00  3.621882740E+02  3.621882740E+02  0.000000000E+00  0.00000E+00  9.000E+00
       1    -1     0     0   511     0  0.000000000E+00  0.000000000E+00 -9.930209891E+00  9.930209891E+00  0.000000000E+00  0.00000E+00  9.000E+00
      23     2     1     2     0     0 -6.912463892E+00 -5.381642637E+00  3.512267205E+02  3.632976050E+02  9.245645671E+01  0.00000E+00  9.000E+00
      13     1     3     3     0     0  1.174144840E+00  1.311074783E+01  3.398966809E+02  3.401514885E+02  1.056583668E-01  0.00000E+00  9.000E+00
     -13     1     3     3     0     0 -8.086608732E+00 -1.849239047E+01  1.133003961E+01  2.314611646E+01  1.056583668E-01  0.00000E+00  9.000E+00
      21     1     1     2   511   501  6.912463892E+00  5.381642637E+00  1.031343622E+00  8.820878879E+00  4.712160915E-08  0.00000E+00  9.000E+00
#pdf  -1  1 0.54718333E-01 0.92438935E-03 0.92456457E+02 0.20003730E+00 0.15483171E+01
#rwgt            1           5   284.78093209541532         54217137    18471612           0
</event>
<event>
      6  10013  3.31628E+03  7.89749E+01 -1.00000E+00  1.28597E-01
      21    -1     0     0   511   501  0.000000000E+00  0.000000000E+00  1.439552835E+03  1.439552835E+03  0.000000000E+00  0.00000E+00  9.000E+00
       2    -1     0     0   501     0  0.000000000E+00  0.000000000E+00 -7.412740058E+00  7.412740058E+00  0.000000000E+00  0.00000E+00  9.000E+00
      23     2     1     2     0     0 -3.909264721E+01 -6.862072906E+01  6.952891466E+02  7.058944856E+02  9.286004486E+01  0.00000E+00  9.000E+00
      13     1     3     3     0     0  1.121601075E+01  1.486062187E+01  2.156435030E+02  2.164457634E+02  1.056583668E-01  0.00000E+00  9.000E+00
     -13     1     3     3     0     0 -5.030865796E+01 -8.348135093E+01  4.796456436E+02  4.894487222E+02  1.056583668E-01  0.00000E+00  9.000E+00
       2     1     1     2   511     0  3.909264721E+01  6.862072906E+01  7.368509484E+02  7.410710895E+02  0.000000000E+00  0.00000E+00  9.000E+00
#pdf  -2  2 0.82105223E-01 0.62144155E-03 0.92860045E+02 0.10981214E+00 0.18071469E+01
#rwgt            1           4   168.80439767303324         54217137    18471703           0
</event>
<event>
      6  10013  3.31628E+03  1.69592E+01 -1.00000E+00  1.72459E-01
      21    -1     0     0   511   501  0.000000000E+00  0.000000000E+00  2.752411216E+00  2.752411216E+00  0.000000000E+00  0.00000E+00  9.000E+00
       2    -1     0     0   501     0  0.000000000E+00  0.000000000E+00 -1.706330737E+03  1.706330737E+03  0.000000000E+00  0.00000E+00  9.000E+00
      23     2     1     2     0     0  1.180874306E+01  1.217241984E+01 -1.655345586E+03  1.657955744E+03  9.143646842E+01  0.00000E+00  9.000E+00
      13     1     3     3     0     0 -3.120871769E+01  6.279617374E+00 -1.227477719E+03  1.227890459E+03  1.056583668E-01  0.00000E+00  9.000E+00
     -13     1     3     3     0     0  4.301746075E+01  5.892802463E+00 -4.278678664E+02  4.300652850E+02  1.056583668E-01  0.00000E+00  9.000E+00
       2     1     1     2   511     0 -1.180874306E+01 -1.217241984E+01 -4.823274055E+01  5.112740438E+01  0.000000000E+00  0.00000E+00  9.000E+00
#pdf  -2  2 0.19741451E-03 0.25059541E+00 0.91436468E+02 0.26746120E+01 0.41737116E+00
#rwgt            1           4   2113.9944422449389         54217137    18471756           0
</event>
<event>
      6  10013  3.31628E+03  7.02448E+00 -1.00000E+00  2.15268E-01
      -4    -1     0     0     0   501  0.000000000E+00  0.000000000E+00  1.906169251E+02  1.906169251E+02  0.000000000E+00  0.00000E+00  9.000E+00
      21    -1     0     0   501   511  0.000000000E+00  0.000000000E+00 -2.304983661E+01  2.304983661E+01  0.000000000E+00  0.00000E+00  9.000E+00
      23     2     1     2     0     0  6.373690645E+00  2.952871568E+00  1.783457277E+02  2.008012089E+02  9.200317141E+01  0.00000E+00  9.000E+00
      13     1     3     3     0     0 -3.518886578E+01 -2.269404698E+01  1.008852076E+02  1.092296311E+02  1.056583668E-01  0.00000E+00  9.000E+00
     -13     1     3     3     0     0  4.156255642E+01  2.564691855E+01  7.746052009E+01  9.157157782E+01  1.056583668E-01  0.00000E+00  9.000E+00
      -4     1     1     2     0   511 -6.373690645E+00 -2.952871568E+00 -1.077863923E+01  1.286555272E+01  0.000000000E+00  0.00000E+00  9.000E+00
#pdf  -4  4 0.29080511E-01 0.17223319E-02 0.92003171E+02 0.15064669E+00 0.92149786E+00
#rwgt            1           2   137.11129888210417         54217137    18471880           0
</event>
<event>
      6  10013  3.31628E+03  2.09578E+01 -1.00000E+00  1.64669E-01
      -4    -1     0     0     0   501  0.000000000E+00  0.000000000E+00  1.575385734E+01  1.575385734E+01  0.000000000E+00  0.00000E+00  9.000E+00
      21    -1     0     0   501   511  0.000000000E+00  0.000000000E+00 -2.338574490E+02  2.338574490E+02  0.000000000E+00  0.00000E+00  9.000E+00
      23     2     1     2     0     0  2.068147084E+01 -3.391876997E+00 -1.343621848E+02  1.632872002E+02  9.038962884E+01  0.00000E+00  9.000E+00
      13     1     3     3     0     0  4.330750162E+00 -3.944678603E+01 -2.481005029E+01  4.680121883E+01  1.056583668E-01  0.00000E+00  9.000E+00
     -13     1     3     3     0     0  1.635072068E+01  3.605490903E+01 -1.095521345E+02  1.164859814E+02  1.056583668E-01  0.00000E+00  9.000E+00
      -4     1     1     2     0   511 -2.068147084E+01  3.391876997E+00 -8.374140687E+01  8.632410608E+01  0.000000000E+00  0.00000E+00  9.000E+00
#pdf  -4  4 0.21675022E-02 0.22304421E-01 0.90389629E+02 0.82308196E+00 0.19104263E+00
#rwgt            1           2   130.51812913917843         54217137    18471969           0
</event>
<event>
      6  10013  3.31628E+03  1.36758E+01 -1.00000E+00  1.81201E-01
       1    -1     0     0   501     0  0.000000000E+00  0.000000000E+00  1.796994743E+03  1.796994743E+03  0.000000000E+00  0.00000E+00  9.000E+00
      21    -1     0     0   511   501  0.000000000E+00  0.000000000E+00 -1.731052175E+00  1.731052175E+00  0.000000000E+00  0.00000E+00  9.000E+00
      23     2     1     2     0     0  1.101951903E+01 -8.099225565E+00  1.677426746E+03  1.680097920E+03  9.370968260E+01  0.00000E+00  9.000E+00
      13     1     3     3     0     0  4.358543218E+01 -3.130321274E+01  1.082105754E+03  1.083435488E+03  1.056583668E-01  0.00000E+00  9.000E+00
     -13     1     3     3     0     0 -3.256591314E+01  2.320398717E+01  5.953209914E+02  5.966624320E+02  1.056583668E-01  0.00000E+00  9.000E+00
       1     1     1     2   511     0 -1.101951903E+01  8.099225565E+00  1.178369452E+02  1.186278758E+02  0.000000000E+00  0.00000E+00  9.000E+00
#pdf   1 -1 0.25556398E+00 0.20332116E-03 0.93709683E+02 0.17091994E+00 0.26646760E+01
#rwgt            1           6   935.33678634707383         54217137    18472021           0
</event>
<event>
      6  10013  3.31628E+03  1.47384E+01 -1.00000E+00  1.78058E-01
       3    -1     0     0   511     0  0.000000000E+00  0.000000000E+00  1.462962155E+02  1.462962155E+02  0.000000000E+00  0.00000E+00  9.000E+00
      -3    -1     0     0     0   501  0.000000000E+00  0.000000000E+00 -2.007849554E+01  2.007849554E+01  0.000000000E+00  0.00000E+00  9.000E+00
      23     2     1     2     0     0  1.345765932E+01  6.009404423E+00  1.064929193E+02  1.417517685E+02  9.238831358E+01  0.00000E+00  9.000E+00
      13     1     3     3     0     0 -2.004372040E+01 -3.443678656E+01  3.495089045E+01  5.300206508E+01  1.056583668E-01  0.00000E+00  9.000E+00
     -13     1     3     3     0     0  3.350137972E+01  4.044619098E+01  7.154202885E+01  8.874970345E+01  1.056583668E-01  0.00000E+00  9.000E+00
      21     1     1     2   511   501 -1.345765932E+01 -6.009404423E+00  1.972480065E+01  2.462294249E+01  2.384185791E-07  0.00000E+00  9.000E+00
#pdf   3 -3 0.18857304E-01 0.26783527E-02 0.92388314E+02 0.33331687E+00 0.93296849E+00
#rwgt            1           8   355.34975321236186         54217137    18472069           0
</event>
<event>
      6  10013  3.31628E+03  4.56966E+00 -1.00000E+00  2.50453E-01
      21    -1     0     0   501   511  0.000000000E+00  0.000000000E+00  5.588260243E+02  5.588260243E+02  0.000000000E+00  0.00000E+00  9.000E+00
      -4    -1     0     0     0   501  0.000000000E+00  0.000000000E+00 -6.699726193E-01  6.699726193E-01  0.000000000E+00  0.00000E+00  9.000E+00
      23     2     1     2     0     0 -3.865304789E+00  2.437462232E+00  2.172785225E+02  2.185878396E+02  2.344793153E+01  0.00000E+00  9.000E+00
      13     1     3     3     0     0  7.681851142E+00 -2.413738712E-01  3.122770224E+01  3.215975201E+01  1.056583668E-01  0.00000E+00  9.000E+00
     -13     1     3     3     0     0 -1.154715593E+01  2.678836104E+00  1.860508203E+02  1.864280876E+02  1.056583668E-01  0.00000E+00  9.000E+00
      -4     1     1     2     0   511  3.865304789E+00 -2.437462232E+00  3.408775292E+02  3.409081573E+02  0.000000000E+00  0.00000E+00  9.000E+00
#pdf   4 -4 0.32909057E-01 0.98856888E-04 0.23447932E+02 0.11544742E+00 0.18657787E+01
#rwgt            1           9   415.65132889987535         54217137    18472141           0
</event>
<event>
      6  10013  3.31628E+03  1.45582E+01 -1.00000E+00  1.78567E-01
       1    -1     0     0   511     0  0.000000000E+00  0.000000000E+00  4.112990873E+02  4.112990873E+02  0.000000000E+00  0.00000E+00  9.000E+00
      -1    -1     0     0     0   501  0.000000000E+00  0.000000000E+00 -6.852765725E+00  6.852765725E+00  0.000000000E+00  0.00000E+00  9.000E+00
      23     2     1     2     0     0  3.290324767E+00 -1.418152538E+01  3.452393037E+02  3.571812628E+02  9.042309341E+01  0.00000E+00  9.000E+00
      13     1     3     3     0     0  2.001925591E+00 -1.026504348E+01 -1.369212495E+00  1.054820982E+01  1.056583668E-01  0.00000E+00  9.000E+00
     -13     1     3     3     0     0  1.288399176E+00 -3.916481895E+00  3.466085162E+02  3.466330530E+02  1.056583668E-01  0.00000E+00  9.000E+00
      21     1     1     2   511   501 -3.290324767E+00  1.418152538E+01  5.920701794E+01  6.097059023E+01  9.536743164E-07  0.00000E+00  9.000E+00
#pdf   1 -1 0.53345382E-01 0.90693297E-03 0.90423093E+02 0.43765122E+00 0.15111321E+01
#rwgt            1           6   459.51615307216423         54217137    18472245           0
</event>
<event>
      6  10013  3.31628E+03  3.00807E+00 -1.00000E+00  2.96376E-01
       1    -1     0     0   501     0  0.000000000E+00  0.000000000E+00  2.091433442E+03  2.091433442E+03  0.000000000E+00  0.00000E+00  9.000E+00
      -1    -1     0     0     0   511  0.000000000E+00  0.000000000E+00 -2.302659266E+00  2.302659266E+00  0.000000000E+00  0.00000E+00  9.000E+00
      23     2     1     2     0     0  8.939335899E-01  2.872168091E+00  2.088733310E+03  2.090701888E+03  9.065591423E+01  0.00000E+00  9.000E+00
      13     1     3     3     0     0 -2.222653114E+01 -3.041531217E+01  4.865996259E+02  4.880556494E+02  1.056583668E-01  0.00000E+00  9.000E+00
     -13     1     3     3     0     0  2.312046473E+01  3.328748026E+01  1.602133684E+03  1.602646238E+03  1.056583668E-01  0.00000E+00  9.000E+00
      21     1     1     2   501   511 -8.939335899E-01 -2.872168091E+00  3.974727131E-01  3.034213468E+00  3.148256033E-07  0.00000E+00  9.000E+00
#pdf   1 -1 0.32131818E+00 0.15134577E-03 0.90655914E+02 0.11482364E+00 0.29418004E+01
#rwgt            1           6   644.57276263628069         54217137    18472306           0
</event>
<event>
      6  10013  3.31628E+03  4.31834E+00 -1.00000E+00  2.55771E-01
       2    -1     0     0   501     0  0.000000000E+00  0.000000000E+00  1.295478665E+01  1.295478665E+01  0.000000000E+00  0.00000E+00  9.000E+00
      -2    -1     0     0     0   511  0.000000000E+00  0.000000000E+00 -2.510673011E+02  2.510673011E+02  0.000000000E+00  0.00000E+00  9.000E+00
      23     2     1     2     0     0  6.100491477E-01  4.275034114E+00 -5.033283825E+00  3.090285682E+01  3.018285170E+01  0.00000E+00  9.000E+00
      13     1     3     3     0     0  1.186483520E+01 -7.541464671E+00 -3.650528851E+00  1.452534090E+01  1.056583668E-01  0.00000E+00  9.000E+00
     -13     1     3     3     0     0 -1.125478605E+01  1.181649878E+01 -1.382754974E+00  1.637751592E+01  1.056583668E-01  0.00000E+00  9.000E+00
      21     1     1     2   501   511 -6.100491477E-01 -4.275034114E+00 -2.330792306E+02  2.331192309E+02  5.394796609E-06  0.00000E+00  9.000E+00
#pdf   2 -2 0.19699075E-02 0.27364531E-02 0.30182852E+02 0.10171753E+01 0.81265259E+00
#rwgt            1           7   996.30486321109106         54217137    18472438           0
</event>
<event>
      6  10013  3.31628E+03  8.49520E+00 -1.00000E+00  2.04254E-01
      -1    -1     0     0     0   501  0.000000000E+00  0.000000000E+00  3.516678051E+02  3.516678051E+02  0.000000000E+00  0.00000E+00  9.000E+00
       1    -1     0     0   511     0  0.000000000E+00  0.000000000E+00 -3.766869597E+00  3.766869597E+00  0.000000000E+00  0.00000E+00  9.000E+00
      23     2     1     2     0     0  8.479226950E+00  5.207777034E-01  3.428539721E+02  3.455533621E+02  4.226241090E+01  0.00000E+00  9.000E+00
      13     1     3     3     0     0 -2.522724794E+00 -1.400806169E+00  3.209790243E+02  3.209920117E+02  1.056583668E-01  0.00000E+00  9.000E+00
     -13     1     3     3     0     0  1.100195174E+01  1.921583872E+00  2.187494786E+01  2.456135042E+01  1.056583668E-01  0.00000E+00  9.000E+00
      21     1     1     2   511   501 -8.479226950E+00 -5.207777034E-01  5.046963407E+00  9.881312601E+00  5.960464478E-08  0.00000E+00  9.000E+00
#pdf  -1  1 0.51915954E-01 0.20357338E-03 0.42262411E+02 0.20956432E+00 0.22255504E+01
#rwgt            1           5   237.21022885759373         54217137    18472507           0
</event>
<event>
      6  10013  3.31628E+03  4.38287E+00 -1.00000E+00  2.54353E-01
       3    -1     0     0   511     0  0.000000000E+00  0.000000000E+00  3.112816728E+02  3.112816728E+02  0.000000000E+00  0.00000E+00  9.000E+00
      -3    -1     0     0     0   501  0.000000000E+00  0.000000000E+00 -7.514173455E+00  7.514173455E+00  0.000000000E+00  0.00000E+00  9.000E+00
      23     2     1     2     0     0  1.036506079E+00  4.258545810E+00  2.827150226E+02  2.972919784E+02  9.184512419E+01  0.00000E+00  9.000E+00
      13     1     3     3     0     0 -2.109067348E+01 -1.727976634E+01  2.529086053E+02  2.543740958E+02  1.056583668E-01  0.00000E+00  9.000E+00
     -13     1     3     3     0     0  2.212717956E+01  2.153831215E+01  2.980641733E+01  4.291788256E+01  1.056583668E-01  0.00000E+00  9.000E+00
      21     1     1     2   511   501 -1.036506079E+00 -4.258545810E+00  2.105247674E+01  2.150386789E+01  2.384185791E-07  0.00000E+00  9.000E+00
#pdf   3 -3 0.44565210E-01 0.11200297E-02 0.91845124E+02 0.16835969E+00 0.13471620E+01
#rwgt            1           8   347.41711861222194         54217137    18472534           0
</event>
<event>
      6  10013  3.31628E+03  6.37411E+00 -1.00000E+00  2.21393E-01
      -2    -1     0     0     0   511  0.000000000E+00  0.000000000E+00  3.097822592E-01  3.097822592E-01  0.000000000E+00  0.00000E+00  9.000E+00
       2    -1     0     0   501     0  0.000000000E+00  0.000000000E+00 -1.705179783E+03  1.705179783E+03  0.000000000E+00  0.00000E+00  9.000E+00
      23     2     1     2     0     0  1.843147795E+00 -6.101807232E+00 -1.651022538E+03  1.651266152E+03  2.763794912E+01  0.00000E+00  9.000E+00
      13     1     3     3     0     0 -1.055823909E+01 -1.947842844E+00 -1.215140806E+03  1.215188240E+03  1.056583668E-01  0.00000E+00  9.000E+00
     -13     1     3     3     0     0  1.240138688E+01 -4.153964388E+00 -4.358817321E+02  4.360779121E+02  1.056583668E-01  0.00000E+00  9.000E+00
      21     1     1     2   501   511 -1.843147795E+00  6.101807232E+00 -5.384746262E+01  5.422341261E+01  9.536743164E-07  0.00000E+00  9.000E+00
#pdf  -2  2 0.18260242E-04 0.24752462E+00 0.27637949E+02 0.41260923E+01 0.47182036E+00
#rwgt            1           4   2856.2141872031743         54217137    18472600           0
</event>
<event>
      6  10013  3.31628E+03  1.15207E+00 -1.00000E+00  5.58864E-01
       2    -1     0     0   511     0  0.000000000E+00  0.000000000E+00  1.086391464E+01  1.086391464E+01  0.000000000E+00  0.00000E+00  9.000E+00
      -2    -1     0     0     0   501  0.000000000E+00  0.000000000E+00 -1.460476119E+01  1.460476119E+01  0.000000000E+00  0.00000E+00  9.000E+00
      23     2     1     2     0     0 -1.668812746E-01 -1.139918436E+00 -6.497563764E+00  2.248090858E+01  2.149059451E+01  0.00000E+00  9.000E+00
      13     1     3     3     0     0 -4.415014993E+00  8.608343660E+00  6.032828102E-01  9.693866710E+00  1.056583668E-01  0.00000E+00  9.000E+00
     -13     1     3     3     0     0  4.248133718E+00 -9.748262097E+00 -7.100846574E+00  1.278704187E+01  1.056583668E-01  0.00000E+00  9.000E+00
      21     1     1     2   511   501  1.668812746E-01  1.139918436E+00  2.756717211E+00  2.987767257E+00  4.214684851E-08  0.00000E+00  9.000E+00
#pdf   2 -2 0.12277252E-02 0.22259171E-02 0.21490595E+02 0.10848163E+01 0.82246652E+00
#rwgt            1           7   886.30516025977329         54217137    18472674           0
</event>
<event>
      6  10013 -3.31628E+03  1.98385E+01 -1.00000E+00  1.66618E-01
      21    -1     0     0   511   501  0.000000000E+00  0.000000000E+00  6.052398461E-01  6.052398461E-01  0.000000000E+00  0.00000E+00  9.000E+00
       4    -1     0     0   501     0  0.000000000E+00  0.000000000E+00 -1.064159332E+03  1.064159332E+03  0.000000000E+00  0.00000E+00  9.000E+00
      23     2     1     2     0     0  2.190466868E+00  1.971715992E+01 -7.501949062E+02  7.507780371E+02  2.194764809E+01  0.00000E+00  9.000E+00
      13     1     3     3     0     0 -7.944133018E+00  1.465902628E+01 -3.200603754E+02  3.204943858E+02  1.056583668E-01  0.00000E+00  9.000E+00
     -13     1     3     3     0     0  1.013459989E+01  5.058133641E+00 -4.301345308E+02  4.302836513E+02  1.056583668E-01  0.00000E+00  9.000E+00
       4     1     1     2   511     0 -2.190466868E+00 -1.971715992E+01 -3.133591856E+02  3.139865343E+02  0.000000000E+00  0.00000E+00  9.000E+00
#pdf  -4  4 0.33276777E-04 0.85654073E-01 0.21947648E+02 0.25486342E+01 0.37723316E-01
#rwgt            1           2  -397.89518091648364         54217137    18472831           0
</event>
<event>
      6  10013  3.31628E+03  3.76580E+00 -1.00000E+00  2.69687E-01
      -2    -1     0     0     0   501  0.000000000E+00  0.000000000E+00  2.705236055E+01  2.705236055E+01  0.000000000E+00  0.00000E+00  9.000E+00
      21    -1     0     0   501   511  0.000000000E+00  0.000000000E+00 -9.391538704E+00  9.391538704E+00  0.000000000E+00  0.00000E+00  9.000E+00
      23     2     1     2     0     0  3.433700165E+00  1.546275918E+00  2.198931204E+01  3.070655725E+01  2.109932577E+01  0.00000E+00  9.000E+00
      13     1     3     3     0     0  8.218980952E+00  5.216249392E+00  2.148669726E+00  9.969395713E+00  1.056583668E-01  0.00000E+00  9.000E+00
     -13     1     3     3     0     0 -4.785280787E+00 -3.669973474E+00  1.984064231E+01  2.073716154E+01  1.056583668E-01  0.00000E+00  9.000E+00
      -2     1     1     2     0   511 -3.433700165E+00 -1.546275918E+00 -4.328490187E+00  5.737342010E+00  0.000000000E+00  0.00000E+00  9.000E+00
#pdf  -2  2 0.39904684E-02 0.66012559E-03 0.21099326E+02 0.66090397E+00 0.12912382E+01
#rwgt            1           4   669.42416080564180         54217137    18472862           0
</event>
<event>
      6  10013  3.31628E+03  2.29336E+01 -1.00000E+00  1.61570E-01
       1    -1     0     0   501     0  0.000000000E+00  0.000000000E+00  1.000144224E+03  1.000144224E+03  0.000000000E+00  0.00000E+00  9.000E+00
      21    -1     0     0   511   501  0.000000000E+00  0.000000000E+00 -4.667185490E+00  4.667185490E+00  0.000000000E+00  0.00000E+00  9.000E+00
      23     2     1     2     0     0  1.583128860E+00  2.287890028E+01  6.538828801E+02  6.624482698E+02  1.036770894E+02  0.00000E+00  9.000E+00
      13     1     3     3     0     0  1.429033128E+01 -8.511799627E+00  1.420239407E+01  2.187197892E+01  1.056583668E-01  0.00000E+00  9.000E+00
     -13     1     3     3     0     0 -1.270720242E+01  3.139069991E+01  6.396804860E+02  6.405762909E+02  1.056583668E-01  0.00000E+00  9.000E+00
       1     1     1     2   511     0 -1.583128860E+00 -2.287890028E+01  3.415941585E+02  3.423631398E+02  0.000000000E+00  0.00000E+00  9.000E+00
#pdf   1 -1 0.98866341E-01 0.64332500E-03 0.10367709E+03 0.36100936E+00 0.17666729E+01
#rwgt            1           6   569.37781936502620         54217137    18472976           0
</event>
<event>
      6  10013  3.31628E+03  5.61096E+00 -1.00000E+00  2.30009E-01
      21    -1     0     0   511   501  0.000000000E+00  0.000000000E+00  3.767976150E+00  3.767976150E+00  0.000000000E+00  0.00000E+00  9.000E+00
       2    -1     0     0   501     0  0.000000000E+00  0.000000000E+00 -6.643695039E+02  6.643695039E+02  0.000000000E+00  0.00000E+00  9.000E+00
      23     2     1     2     0     0 -4.501860806E+00 -3.349051252E+00 -6.378392711E+02  6.446938620E+02  9.359357442E+01  0.00000E+00  9.000E+00
      13     1     3     3     0     0  5.925964215E+00 -2.828698200E+01 -5.813760272E+02  5.820939499E+02  1.056583668E-01  0.00000E+00  9.000E+00
     -13     1     3     3     0     0 -1.042782502E+01  2.493793075E+01 -5.646324385E+01  6.259991210E+01  1.056583668E-01  0.00000E+00  9.000E+00
       2     1     1     2   511     0  4.501860806E+00  3.349051252E+00 -2.276225670E+01  2.344361800E+01  0.000000000E+00  0.00000E+00  9.000E+00
#pdf  -2  2 0.52633125E-03 0.98479584E-01 0.93593574E+02 0.18670518E+01 0.60307819E+00
#rwgt            1           4   1798.1909514701269         54217137    18473098           0
</event>
<event>
      6  10013  3.31628E+03  1.29569E+01 -1.00000E+00  1.83541E-01
      21    -1     0     0   511   501  0.000000000E+00  0.000000000E+00  5.399156020E+01  5.399156020E+01  0.000000000E+00  0.00000E+00  9.000E+00
       2    -1     0     0   501     0  0.000000000E+00  0.000000000E+00 -5.225628779E+01  5.225628779E+01  0.000000000E+00  0.00000E+00  9.000E+00
      23     2     1     2     0     0 -1.688950879E+00  1.284632941E+01 -9.241305531E+00  8.926650535E+01  8.783636215E+01  0.00000E+00  9.000E+00
      13     1     3     3     0     0  4.193989881E+01  8.462810033E+00  5.201885096E+00  4.310040647E+01  1.056583668E-01  0.00000E+00  9.000E+00
     -13     1     3     3     0     0 -4.362884968E+01  4.383519382E+00 -1.444319063E+01  4.616609888E+01  1.056583668E-01  0.00000E+00  9.000E+00
       2     1     1     2   511     0  1.688950879E+00 -1.284632941E+01  1.097657794E+01  1.698134264E+01  0.000000000E+00  0.00000E+00  9.000E+00
#pdf  -2  2 0.60898842E-02 0.74964032E-02 0.87836362E+02 0.66503966E+00 0.81174848E+00
#rwgt            1           4   504.10800517672067         54217137    18473351           0
</event>
<event>
      6  10013  3.31628E+03  1.77962E+01 -1.00000E+00  1.70620E-01
       1    -1     0     0   501     0  0.000000000E+00  0.000000000E+00  5.041793026E+01  5.041793026E+01  0.000000000E+00  0.00000E+00  9.000E+00
      -1    -1     0     0     0   511  0.000000000E+00  0.000000000E+00 -6.639666157E+01  6.639666157E+01  0.000000000E+00  0.00000E+00  9.000E+00
      23     2     1     2     0     0 -2.299046394E+00  1.764703365E+01 -2.118472806E-02  9.291173207E+01  9.119148040E+01  0.00000E+00  9.000E+00
      13     1     3     3     0     0  1.376498141E+01 -1.684278708E+01 -3.501307789E+01  4.121990995E+01  1.056583668E-01  0.00000E+00  9.000E+00
     -13     1     3     3     0     0 -1.606402781E+01  3.448982073E+01  3.499189316E+01  5.169182212E+01  1.056583668E-01  0.00000E+00  9.000E+00
      21     1     1     2   501   511  2.299046394E+00 -1.764703365E+01 -1.595754658E+01  2.390285975E+01  2.384185791E-07  0.00000E+00  9.000E+00
#pdf   1 -1 0.70131300E-02 0.70163289E-02 0.91191480E+02 0.75551589E+00 0.63997761E+00
#rwgt            1           6   530.80859945648740         54217137    18473467           0
</event>
<event>
      6  10013  3.31628E+03  1.26247E+01 -1.00000E+00  1.84689E-01
      21    -1     0     0   511   501  0.000000000E+00  0.000000000E+00  5.183103758E+00  5.183103758E+00  0.000000000E+00  0.00000E+00  9.000E+00
       1    -1     0     0   501     0  0.000000000E+00  0.000000000E+00 -5.308093709E+02  5.308093709E+02  0.000000000E+00  0.00000E+00  9.000E+00
      23     2     1     2     0     0  5.522008450E+00  1.135297342E+01 -4.810701860E+02  4.896823575E+02  9.055884729E+01  0.00000E+00  9.000E+00
      13     1     3     3     0     0  2.632785197E+01  4.226618333E+01 -3.460600652E+02  3.496243212E+02  1.056583668E-01  0.00000E+00  9.000E+00
     -13     1     3     3     0     0 -2.080584352E+01 -3.091320991E+01 -1.350101208E+02  1.400580364E+02  1.056583668E-01  0.00000E+00  9.000E+00
       1     1     1     2   511     0 -5.522008450E+00 -1.135297342E+01 -4.455608111E+01  4.631011711E+01  0.000000000E+00  0.00000E+00  9.000E+00
#pdf  -1  1 0.65612955E-03 0.73958053E-01 0.90558847E+02 0.17124462E+01 0.40077361E+00
#rwgt            1           5   986.11322591173962         54217137    18473584           0
</event>
<event>
      6  10013  3.31628E+03  7.13545E+00 -1.00000E+00  2.14313E-01
      -2    -1     0     0     0   511  0.000000000E+00  0.000000000E+00  1.337820106E+00  1.337820106E+00  0.000000000E+00  0.00000E+00  9.000E+00
       2    -1     0     0   501     0  0.000000000E+00  0.000000000E+00 -2.059391101E+03  2.059391101E+03  0.000000000E+00  0.00000E+00  9.000E+00
      23     2     1     2     0     0  3.153510760E-01 -7.128479396E+00 -2.020458938E+03  2.022463411E+03  8.973858146E+01  0.00000E+00  9.000E+00
      13     1     3     3     0     0  2.693399724E+01  3.245362217E+01 -8.906366706E+02  8.916346606E+02  1.056583668E-01  0.00000E+00  9.000E+00
     -13     1     3     3     0     0 -2.661864616E+01 -3.958210156E+01 -1.129822268E+03  1.130828750E+03  1.056583668E-01  0.00000E+00  9.000E+00
      21     1     1     2   501   511 -3.153510760E-01  7.128479396E+00 -3.759434246E+01  3.826550993E+01  1.719260824E-06  0.00000E+00  9.000E+00
#pdf  -2  2 0.15370508E-03 0.31001554E+00 0.89738581E+02 0.29147989E+01 0.32974848E+00
#rwgt            1           4   1481.7345470051378         54217137    18473637           0
</event>
<event>
      6  10013  3.31628E+03  7.81512E+00 -1.00000E+00  2.08940E-01
      21    -1     0     0   511   501  0.000000000E+00  0.000000000E+00  4.295791526E+02  4.295791526E+02  0.000000000E+00  0.00000E+00  9.000E+00
       1    -1     0     0   501     0  0.000000000E+00  0.000000000E+00 -3.122204337E+01  3.122204337E+01  0.000000000E+00  0.00000E+00  9.000E+00
      23     2     1     2     0     0  7.560226445E+00  1.979681933E+00  3.514524210E+01  9.750526070E+01  9.061463269E+01  0.00000E+00  9.000E+00
      13     1     3     3     0     0  3.402017452E+01 -2.976069127E+01  3.273101155E+00  4.531881921E+01  1.056583668E-01  0.00000E+00  9.000E+00
     -13     1     3     3     0     0 -2.645994808E+01  3.174037320E+01  3.187214095E+01  5.218644149E+01  1.056583668E-01  0.00000E+00  9.000E+00
       1     1     1     2   511     0 -7.560226445E+00 -1.979681933E+00  3.632118671E+02  3.632959353E+02  0.000000000E+00  0.00000E+00  9.000E+00
#pdf  -1  1 0.10166145E-01 0.47791829E-02 0.90614633E+02 0.53650077E+00 0.85794454E+00
#rwgt            1           5   631.80164237236977         54217137    18473736           0
</event>
<event>
      6  10013  3.31628E+03  4.27300E+00 -1.00000E+00  2.56790E-01
      21    -1     0     0   511   501  0.000000000E+00  0.000000000E+00  3.787874071E+01  3.787874071E+01  0.000000000E+00  0.00000E+00  9.000E+00
       2    -1     0     0   501     0  0.000000000E+00  0.000000000E+00 -1.914448483E+02  1.914448483E+02  0.000000000E+00  0.00000E+00  9.000E+00
      23     2     1     2     0     0  2.677007270E-01  4.264603625E+00 -1.804575455E+02  2.020947819E+02  9.087968207E+01  0.00000E+00  9.000E+00
      13     1     3     3     0     0  6.509427061E+00 -7.092423913E+00 -1.872265046E+02  1.874738656E+02  1.056583668E-01  0.00000E+00  9.000E+00
     -13     1     3     3     0     0 -6.241726334E+00  1.135702754E+01  6.768959026E+00  1.462091625E+01  1.056583668E-01  0.00000E+00  9.000E+00
       2     1     1     2   511     0 -2.677007270E-01 -4.264603625E+00  2.689143791E+01  2.722880718E+01  0.000000000E+00  0.00000E+00  9.000E+00
#pdf  -2  2 0.16625661E-02 0.29394629E-01 0.90879682E+02 0.11797681E+01 0.65379762E+00
#rwgt            1           4   713.57461215047761         54217137    18473821           0
</event>
<event>
      6  10013  3.31628E+03  2.11701E+01 -1.00000E+00  1.64317E-01
       2    -1     0     0   501     0  0.000000000E+00  0.000000000E+00  6.957543935E+02  6.957543935E+02  0.000000000E+00  0.00000E+00  9.000E+00
      21    -1     0     0   511   501  0.000000000E+00  0.000000000E+00 -1.346588630E+00  1.346588630E+00  0.000000000E+00  0.00000E+00  9.000E+00
      23     2     1     2     0     0 -1.350774287E+01  1.630072687E+01  5.035349998E+02  5.050577565E+02  3.297981980E+01  0.00000E+00  9.000E+00
      13     1     3     3     0     0 -2.245262858E+01  1.926078375E+01  3.596496410E+02  3.608642040E+02  1.056583668E-01  0.00000E+00  9.000E+00
     -13     1     3     3     0     0  8.944885706E+00 -2.960056871E+00  1.438853588E+02  1.441935525E+02  1.056583668E-01  0.00000E+00  9.000E+00
       2     1     1     2   511     0  1.350774287E+01 -1.630072687E+01  1.908728051E+02  1.920432257E+02  0.000000000E+00  0.00000E+00  9.000E+00
#pdf   2 -2 0.65290139E-01 0.98573972E-04 0.32979820E+02 0.62799817E+00 0.26073765E+01
#rwgt            1           7   1830.2668266765752         54217137    18474098           0
</event>
<event>
      5  10013  3.31628E+03  8.94427E-01 -1.00000E+00  7.40904E-01
      -2    -1     0     0     0   501  0.000000000E+00  0.000000000E+00  9.550430031E-02  9.550430031E-02  0.000000000E+00  0.00000E+00  9.000E+00
       2    -1     0     0   501     0  0.000000000E+00  0.000000000E+00 -1.497717747E+03  1.497717747E+03  0.000000000E+00  0.00000E+00  9.000E+00
      23     2     1     2     0     0  0.000000000E+00  0.000000000E+00 -1.497622243E+03  1.497813252E+03  2.391973959E+01  0.00000E+00  9.000E+00
      13     1     3     3     0     0 -4.985604771E+00 -5.856825915E+00 -1.753538475E+02  1.755224819E+02  1.056583668E-01  0.00000E+00  9.000E+00
     -13     1     3     3     0     0  4.985604771E+00  5.856825915E+00 -1.322268396E+03  1.322290770E+03  1.056583668E-01  0.00000E+00  9.000E+00
#pdf  -2  2 0.14692969E-04 0.23041811E+00 0.23919740E+02 0.41600835E+01 0.50263911E+00
#rwgt            1           4   5011.7723248530710         54217137    18474139           0
</event>
<event>
      6  10013  3.31628E+03  6.15453E+00 -1.00000E+00  2.23693E-01
      21    -1     0     0   511   501  0.000000000E+00  0.000000000E+00  1.105219013E+01  1.105219013E+01  0.000000000E+00  0.00000E+00  9.000E+00
       4    -1     0     0   501     0  0.000000000E+00  0.000000000E+00 -5.198970632E+01  5.198970632E+01  0.000000000E+00  0.00000E+00  9.000E+00
      23     2     1     2     0     0  2.151885026E+00  5.766075465E+00 -1.981367595E+01  4.103974061E+01  3.540904290E+01  0.00000E+00  9.000E+00
      13     1     3     3     0     0 -1.174633845E+01  1.474685142E+01 -7.000846659E+00  2.011141744E+01  1.056583668E-01  0.00000E+00  9.000E+00
     -13     1     3     3     0     0  1.389822348E+01 -8.980775953E+00 -1.281282929E+01  2.092832317E+01  1.056583668E-01  0.00000E+00  9.000E+00
       4     1     1     2   511     0 -2.151885026E+00 -5.766075465E+00 -2.112384024E+01  2.200215584E+01  0.000000000E+00  0.00000E+00  9.000E+00
#pdf  -4  4 0.16086557E-02 0.46118861E-02 0.35409043E+02 0.77041278E+00 0.47069679E+00
#rwgt            1           2   563.62739229113333         54217137    18474482           0
</event>
<event>
      6  10013  3.31628E+03  2.35685E+01 -1.00000E+00  1.60654E-01
       1    -1     0     0   501     0  0.000000000E+00  0.000000000E+00  1.392036260E+03  1.392036260E+03  0.000000000E+00  0.00000E+00  9.000E+00
      21    -1     0     0   511   501  0.000000000E+00  0.000000000E+00 -2.908390587E+00  2.908390587E+00  0.000000000E+00  0.00000E+00  9.000E+00
      23     2     1     2     0     0  2.149016000E+01  9.677177735E+00  7.944489116E+02  7.997988386E+02  8.929520828E+01  0.00000E+00  9.000E+00
      13     1     3     3     0     0  2.466338021E+01  4.564271967E+01  5.816040982E+02  5.839134169E+02  1.056583668E-01  0.00000E+00  9.000E+00
     -13     1     3     3     0     0 -3.173220208E+00 -3.596554194E+01  2.128448134E+02  2.158854217E+02  1.056583668E-01  0.00000E+00  9.000E+00
       1     1     1     2   511     0 -2.149016000E+01 -9.677177735E+00  5.946789577E+02  5.951458120E+02  0.000000000E+00  0.00000E+00  9.000E+00
#pdf   1 -1 0.11857381E+00 0.39790631E-03 0.89295208E+02 0.33535882E+00 0.20624260E+01
#rwgt            1           6   1371.4783135377909         54217137    18474519           0
</event>
<event>
      6  10013  3.31628E+03  3.58032E+01 -1.00000E+00  1.47858E-01
      -3    -1     0     0     0   501  0.000000000E+00  0.000000000E+00  2.144822281E+02  2.144822281E+02  0.000000000E+00  0.00000E+00  9.000E+00
      21    -1     0     0   501   511  0.000000000E+00  0.000000000E+00 -2.363114738E+01  2.363114738E+01  0.000000000E+00  0.00000E+00  9.000E+00
      23     2     1     2     0     0 -1.794091839E+01  3.098369863E+01  9.915782418E+01  1.396780189E+02  9.162864579E+01  0.00000E+00  9.000E+00
      13     1     3     3     0     0 -3.190190847E+01  1.848860589E+01  1.113686867E+02  1.173139201E+02  1.056583668E-01  0.00000E+00  9.000E+00
     -13     1     3     3     0     0  1.396099009E+01  1.249509274E+01 -1.221086252E+01  2.236409877E+01  1.056583668E-01  0.00000E+00  9.000E+00
      -3     1     1     2     0   511  1.794091839E+01 -3.098369863E+01  9.169325656E+01  9.843535662E+01  0.000000000E+00  0.00000E+00  9.000E+00
#pdf  -3  3 0.17112045E-01 0.29031797E-02 0.91628646E+02 0.35509533E+00 0.89921096E+00
#rwgt            1           3   308.14231343152738         54217137    18474598           0
</event>
<event>
      6  10013 -3.31628E+03  2.89475E+00 -1.00000E+00  3.01511E-01
       4    -1     0     0   501     0  0.000000000E+00  0.000000000E+00  1.522224811E+00  1.522224811E+00  0.000000000E+00  0.00000E+00  9.000E+00
      21    -1     0     0   511   501  0.000000000E+00  0.000000000E+00 -3.201283202E+02  3.201283202E+02  0.000000000E+00  0.00000E+00  9.000E+00
      23     2     1     2     0     0 -2.729842258E+00  9.630940825E-01 -8.790479776E+01  9.093108697E+01  2.308310031E+01  0.00000E+00  9.000E+00
      13     1     3     3     0     0 -5.043424942E+00 -6.373919314E+00 -1.118641472E+01  1.382787115E+01  1.056583668E-01  0.00000E+00  9.000E+00
     -13     1     3     3     0     0  2.313582684E+00  7.337013397E+00 -7.671838304E+01  7.710321582E+01  1.056583668E-01  0.00000E+00  9.000E+00
       4     1     1     2   511     0  2.729842258E+00 -9.630940825E-01 -2.307012977E+02  2.307194581E+02  0.000000000E+00  0.00000E+00  9.000E+00
#pdf   4 -4 0.23098228E-03 0.13649694E-01 0.23083100E+02 0.13993081E+01 0.22959212E+00
#rwgt            1           9  -2906.3585376572046         54217137    18474631           0
</event>
<event>
      6  10013  3.31628E+03  1.36508E+01 -1.00000E+00  1.81279E-01
       2    -1     0     0   511     0  0.000000000E+00  0.000000000E+00  2.938562692E+03  2.938562692E+03  0.000000000E+00  0.00000E+00  9.000E+00
      -2    -1     0     0     0   501  0.000000000E+00  0.000000000E+00 -5.056957437E+00  5.056957437E+00  0.000000000E+00  0.00000E+00  9.000E+00
      23     2     1     2     0     0  3.093302031E+00  1.329571414E+01  4.756454945E+02  4.857215018E+02  9.746997655E+01  0.00000E+00  9.000E+00
      13     1     3     3     0     0 -6.152917844E+00  3.247782900E+00  4.713575117E+02  4.714088687E+02  1.056583668E-01  0.00000E+00  9.000E+00
     -13     1     3     3     0     0  9.246219875E+00  1.004793124E+01  4.287982731E+00  1.431263302E+01  1.056583668E-01  0.00000E+00  9.000E+00
      21     1     1     2   511   501 -3.093302031E+00 -1.329571414E+01  2.457860240E+03  2.457898148E+03  0.000000000E+00  0.00000E+00  9.000E+00
#pdf   2 -2 0.73236550E-01 0.76758617E-03 0.97469977E+02 0.61952906E+00 0.16255010E+01
#rwgt            1           7   2446.2961285615170         54217137    18474810           0
</event>
<event>
      6  10013  3.31628E+03  8.09539E+00 -1.00000E+00  2.06934E-01
       3    -1     0     0   501     0  0.000000000E+00  0.000000000E+00  3.558521777E+02  3.558521777E+02  0.000000000E+00  0.00000E+00  9.000E+00
      21    -1     0     0   511   501  0.000000000E+00  0.000000000E+00 -1.216894305E+01  1.216894305E+01  0.000000000E+00  0.00000E+00  9.000E+00
      23     2     1     2     0     0 -1.337440683E-01 -8.094281751E+00  3.474543816E+02  3.590904525E+02  9.030985818E+01  0.00000E+00  9.000E+00
      13     1     3     3     0     0 -2.553125280E+01  7.518352881E+00  3.103668467E+02  3.115059569E+02  1.056583668E-01  0.00000E+00  9.000E+00
     -13     1     3     3     0     0  2.539750874E+01 -1.561263463E+01  3.708753494E+01  4.758449560E+01  1.056583668E-01  0.00000E+00  9.000E+00
       3     1     1     2   511     0  1.337440683E-01  8.094281751E+00 -3.771147025E+00  8.930668196E+00  0.000000000E+00  0.00000E+00  9.000E+00
#pdf   3 -3 0.54132551E-01 0.89150775E-03 0.90309858E+02 0.13839823E+00 0.14724293E+01
#rwgt            1           8   338.66868409867294         54217137    18474873           0
</event>
<event>
      6  10013  3.31628E+03  2.60850E+01 -1.00000E+00  1.57344E-01
      -2    -1     0     0     0   501  0.000000000E+00  0.000000000E+00  8.729290897E+02  8.729290897E+02  0.000000000E+00  0.00000E+00  9.000E+00
      21    -1     0     0   501   511  0.000000000E+00  0.000000000E+00 -2.316624647E+01  2.316624647E+01  0.000000000E+00  0.00000E+00  9.000E+00
      23     2     1     2     0     0 -1.517702468E+01 -2.121524950E+01  8.620454047E+02  8.672632325E+02  9.133896118E+01  0.00000E+00  9.000E+00
      13     1     3     3     0     0 -1.410347382E+01 -8.213499298E+00  8.477591205E+02  8.479162147E+02  1.056583668E-01  0.00000E+00  9.000E+00
     -13     1     3     3     0     0 -1.073550855E+00 -1.300175020E+01  1.428628419E+01  1.934701784E+01  1.056583668E-01  0.00000E+00  9.000E+00
      -2     1     1     2     0   511  1.517702468E+01  2.121524950E+01 -1.228256141E+01  2.883210371E+01  0.000000000E+00  0.00000E+00  9.000E+00
#pdf  -2  2 0.12790988E+00 0.38594137E-03 0.91338961E+02 0.60571942E-01 0.21336173E+01
#rwgt            1           4   143.01583313676804         54217137    18474947           0
</event>
<event>
      6  10013  3.31628E+03  3.93228E+00 -1.00000E+00  2.65120E-01
      -1    -1     0     0     0   501  0.000000000E+00  0.000000000E+00  6.824035496E+01  6.824035496E+01  0.000000000E+00  0.00000E+00  9.000E+00
       1    -1     0     0   511     0  0.000000000E+00  0.000000000E+00 -6.434759278E+01  6.434759278E+01  0.000000000E+00  0.00000E+00  9.000E+00
      23     2     1     2     0     0  2.358125699E+00 -3.146750697E+00  3.799060531E+01  9.826411195E+01  9.053776455E+01  0.00000E+00  9.000E+00
      13     1     3     3     0     0 -1.641679934E+01  3.096055845E+00 -2.621114616E+01  3.108266734E+01  1.056583668E-01  0.00000E+00  9.000E+00
     -13     1     3     3     0     0  1.877492504E+01 -6.242806541E+00  6.420175147E+01  6.718144461E+01  1.056583668E-01  0.00000E+00  9.000E+00
      21     1     1     2   511   501 -2.358125699E+00  3.146750697E+00 -3.409784314E+01  3.432383579E+01  6.743495762E-07  0.00000E+00  9.000E+00
#pdf  -1  1 0.10471260E-01 0.46320567E-02 0.90537765E+02 0.52880310E+00 0.86705481E+00
#rwgt            1           5   721.47159440008659         54217137    18475086           0
</event>
<event>
      6  10013  3.31628E+03  2.52514E+01 -1.00000E+00  1.58388E-01
      21    -1     0     0   511   501  0.000000000E+00  0.000000000E+00  1.692594673E+01  1.692594673E+01  0.000000000E+00  0.00000E+00  9.000E+00
       5    -1     0     0   501     0  0.000000000E+00  0.000000000E+00 -2.096550203E+02  2.096550203E+02  0.000000000E+00  0.00000E+00  9.000E+00
      23     2     1     2     0     0 -2.319571520E+01  9.979635890E+00 -1.604199403E+02  1.855746940E+02  8.980966241E+01  0.00000E+00  9.000E+00
      13     1     3     3     0     0 -5.764672682E+01  5.598427552E+00 -1.105630536E+02  1.248146125E+02  1.056583668E-01  0.00000E+00  9.000E+00
     -13     1     3     3     0     0  3.445101162E+01  4.381208339E+00 -4.985688669E+01  6.076008149E+01  1.056583668E-01  0.00000E+00  9.000E+00
       5     1     1     2   511     0  2.319571520E+01 -9.979635890E+00 -3.230913323E+01  4.100627301E+01  0.000000000E+00  0.00000E+00  9.000E+00
#pdf  -5  5 0.18627521E-02 0.25621489E-01 0.89809662E+02 0.61835926E+00 0.10003645E+00
#rwgt            1           1   16.816601935181914         54217137    18475199           0
</event>
<event>
      6  10013  3.31628E+03  2.75769E+01 -1.00000E+00  1.55588E-01
      -3    -1     0     0     0   501  0.000000000E+00  0.000000000E+00  5.619424554E+01  5.619424554E+01  0.000000000E+00  0.00000E+00  9.000E+00
       3    -1     0     0   511     0  0.000000000E+00  0.000000000E+00 -6.720077120E+01  6.720077120E+01  0.000000000E+00  0.00000E+00  9.000E+00
      23     2     1     2     0     0  2.489880063E+01 -1.185466439E+01 -7.247922132E+00  9.556319249E+01  9.121024088E+01  0.00000E+00  9.000E+00
      13     1     3     3     0     0  4.425227005E+01 -4.001635515E+01  3.435792190E+00  5.976109031E+01  1.056583668E-01  0.00000E+00  9.000E+00
     -13     1     3     3     0     0 -1.935346942E+01  2.816169076E+01 -1.068371432E+01  3.580210217E+01  1.056583668E-01  0.00000E+00  9.000E+00
      21     1     1     2   511   501 -2.489880063E+01  1.185466439E+01 -3.758603529E+00  2.783182425E+01  3.769728732E-07  0.00000E+00  9.000E+00
#pdf  -3  3 0.65027659E-02 0.75701134E-02 0.91210241E+02 0.61383799E+00 0.56786185E+00
#rwgt            1           3   480.80332142662286         54217137    18475351           0
</event>
<event>
      6  10013  3.31628E+03  1.56631E+01 -1.00000E+00  1.75585E-01
       2    -1     0     0   501     0  0.000000000E+00  0.000000000E+00  1.272456699E+03  1.272456699E+03  0.000000000E+00  0.00000E+00  9.000E+00
      -2    -1     0     0     0   511  0.000000000E+00  0.000000000E+00 -3.423362715E+00  3.423362715E+00  0.000000000E+00  0.00000E+00  9.000E+00
      23     2     1     2     0     0  1.829276246E+00 -1.555594906E+01  1.234984153E+03  1.238400992E+03  9.058600626E+01  0.00000E+00  9.000E+00
      13     1     3     3     0     0 -2.239359628E+01 -4.570628532E+01  8.355628186E+02  8.371115652E+02  1.056583668E-01  0.00000E+00  9.000E+00
     -13     1     3     3     0     0  2.422287252E+01  3.015033626E+01  3.994213342E+02  4.012894263E+02  1.056583668E-01  0.00000E+00  9.000E+00
      21     1     1     2   501   511 -1.829276246E+00  1.555594906E+01  3.404918380E+01  3.747907042E+01  1.581489940E-06  0.00000E+00  9.000E+00
#pdf   2 -2 0.18747847E+00 0.25899068E-03 0.90586006E+02 0.50793523E+00 0.24180715E+01
#rwgt            1           7   1691.4802364098095         54217137    18475380           0
</event>
<event>
      6  10013  3.31628E+03  5.79381E+00 -1.00000E+00  2.27776E-01
      21    -1     0     0   511   501  0.000000000E+00  0.000000000E+00  1.616639479E-01  1.616639479E-01  0.000000000E+00  0.00000E+00  9.000E+00
       2    -1     0     0   501     0  0.000000000E+00  0.000000000E+00 -1.804790465E+03  1.804790465E+03  0.000000000E+00  0.00000E+00  9.000E+00
      23     2     1     2     0     0 -3.885061202E+00 -4.298204325E+00 -1.628470578E+03  1.628698652E+03  2.663288140E+01  0.00000E+00  9.000E+00
      13     1     3     3     0     0 -1.450325742E+01 -6.713446723E+00 -8.304292469E+02  8.305830243E+02  1.056583668E-01  0.00000E+00  9.000E+00
     -13     1     3     3     0     0  1.061819622E+01  2.415242398E+00 -7.980413306E+02  7.981156282E+02  1.056583668E-01  0.00000E+00  9.000E+00
       2     1     1     2   511     0  3.885061202E+00  4.298204325E+00 -1.761582239E+02  1.762534769E+02  0.000000000E+00  0.00000E+00  9.000E+00
#pdf  -2  2 0.17143260E-04 0.24482524E+00 0.26632881E+02 0.41454563E+01 0.47743939E+00
#rwgt            1           4   3245.1358281738430         54217137    18475427           0
</event>
<event>
      6  10013  3.31628E+03  4.96380E+01 -1.00000E+00  1.39227E-01
      21    -1     0     0   501   511  0.000000000E+00  0.000000000E+00  6.917419874E+01  6.917419874E+01  0.000000000E+00  0.00000E+00  9.000E+00
      -5    -1     0     0     0   501  0.000000000E+00  0.000000000E+00 -9.300699379E+01  9.300699379E+01  0.000000000E+00  0.00000E+00  9.000E+00
      23     2     1     2     0     0  3.879909157E+01  3.096068092E+01 -3.780376356E+01  1.106145247E+02  9.133737059E+01  0.00000E+00  9.000E+00
      13     1     3     3     0     0  3.426699560E+01  2.761506654E+01 -6.739498392E+01  8.049170087E+01  1.056583668E-01  0.00000E+00  9.000E+00
     -13     1     3     3     0     0  4.532095965E+00  3.345614380E+00  2.959122036E+01  3.012282383E+01  1.056583668E-01  0.00000E+00  9.000E+00
      -5     1     1     2     0   511 -3.879909157E+01 -3.096068092E+01  1.397096851E+01  5.156666783E+01  0.000000000E+00  0.00000E+00  9.000E+00
#pdf   5 -5 0.49210664E-02 0.10031158E-01 0.91337371E+02 0.35602781E+00 0.22027050E+00
#rwgt            1          10   85.387609327731880         54217137    18475506           0
</event>
<event>
      6  10013  3.31628E+03  3.43676E+01 -1.00000E+00  1.49017E-01
      21    -1     0     0   511   501  0.000000000E+00  0.000000000E+00  6.324303540E+00  6.324303540E+00  0.000000000E+00  0.00000E+00  9.000E+00
       2    -1     0     0   501     0  0.000000000E+00  0.000000000E+00 -7.127165870E+02  7.127165870E+02  0.000000000E+00  0.00000E+00  9.000E+00
      23     2     1     2     0     0 -2.321605228E+01 -2.534063756E+01 -4.098821234E+02  4.205456510E+02  8.760226319E+01  0.00000E+00  9.000E+00
      13     1     3     3     0     0  6.557223761E+00 -5.055698815E+01 -1.689297787E+02  1.764547748E+02  1.056583668E-01  0.00000E+00  9.000E+00
     -13     1     3     3     0     0 -2.977327605E+01  2.521635059E+01 -2.409523447E+02  2.440908763E+02  1.056583668E-01  0.00000E+00  9.000E+00
       2     1     1     2   511     0  2.321605228E+01  2.534063756E+01 -2.965101601E+02  2.984952395E+02  0.000000000E+00  0.00000E+00  9.000E+00
#pdf  -2  2 0.76360979E-03 0.59466511E-01 0.87602263E+02 0.15992655E+01 0.62773844E+00
#rwgt            1           4   1378.3109670403612         54217137    18475668           0
</event>
<event>
      6  10013  3.31628E+03  4.33980E+00 -1.00000E+00  2.55295E-01
      21    -1     0     0   511   501  0.000000000E+00  0.000000000E+00  2.189337785E+00  2.189337785E+00  0.000000000E+00  0.00000E+00  9.000E+00
       1    -1     0     0   501     0  0.000000000E+00  0.000000000E+00 -1.529435936E+03  1.529435936E+03  0.000000000E+00  0.00000E+00  9.000E+00
      23     2     1     2     0     0  2.388175647E+00  3.623600087E+00 -1.521845354E+03  1.524696544E+03  9.309906101E+01  0.00000E+00  9.000E+00
      13     1     3     3     0     0 -1.118838131E+00 -4.451906515E+01 -6.603469076E+02  6.618468468E+02  1.056583668E-01  0.00000E+00  9.000E+00
     -13     1     3     3     0     0  3.507013778E+00  4.814266523E+01 -8.614984462E+02  8.628496969E+02  1.056583668E-01  0.00000E+00  9.000E+00
       1     1     1     2   511     0 -2.388175647E+00 -3.623600087E+00 -5.401244093E+00  6.928729917E+00  0.000000000E+00  0.00000E+00  9.000E+00
#pdf  -1  1 0.21908439E-03 0.23409518E+00 0.93099061E+02 0.25898517E+01 0.19282811E+00
#rwgt            1           5   1035.5859546843028         54217137    18475699           0
</event>
<event>
      6  10013  3.31628E+03  1.03249E+01 -1.00000E+00  1.94108E-01
       2    -1     0     0   501     0  0.000000000E+00  0.000000000E+00  5.266913372E+00  5.266913372E+00  0.000000000E+00  0.00000E+00  9.000E+00
      21    -1     0     0   511   501  0.000000000E+00  0.000000000E+00 -2.579665144E+02  2.579665144E+02  0.000000000E+00  0.00000E+00  9.000E+00
      23     2     1     2     0     0 -4.127684539E+00  9.463960832E+00 -2.036637565E+01  3.067089435E+01  2.047706447E+01  0.00000E+00  9.000E+00
      13     1     3     3     0     0  5.457291413E+00  7.862626161E+00 -1.835034036E+00  9.745841848E+00  1.056583668E-01  0.00000E+00  9.000E+00
     -13     1     3     3     0     0 -9.584975952E+00  1.601334671E+00 -1.853134161E+01  2.092505251E+01  1.056583668E-01  0.00000E+00  9.000E+00
       2     1     1     2   511     0  4.127684539E+00 -9.463960832E+00 -2.323332254E+02  2.325625335E+02  0.000000000E+00  0.00000E+00  9.000E+00
#pdf   2 -2 0.70777380E-03 0.35055342E-02 0.20477064E+02 0.12553986E+01 0.69022007E+00
#rwgt            1           7   839.00236635497981         54217137    18475808           0
</event>
<event>
      6  10013  3.31628E+03  2.90747E+01 -1.00000E+00  1.53955E-01
       2    -1     0     0   501     0  0.000000000E+00  0.000000000E+00  7.808792033E+02  7.808792033E+02  0.000000000E+00  0.00000E+00  9.000E+00
      21    -1     0     0   511   501  0.000000000E+00  0.000000000E+00 -5.344583990E+00  5.344583990E+00  0.000000000E+00  0.00000E+00  9.000E+00
      23     2     1     2     0     0 -1.492546674E+01 -2.495130661E+01  6.362134582E+02  6.439011848E+02  9.484637091E+01  0.00000E+00  9.000E+00
      13     1     3     3     0     0 -9.919882794E+00 -2.715288564E+00  6.058374576E+02  6.059247586E+02  1.056583668E-01  0.00000E+00  9.000E+00
     -13     1     3     3     0     0 -5.005583946E+00 -2.223601804E+01  3.037600062E+01  3.797642620E+01  1.056583668E-01  0.00000E+00  9.000E+00
       2     1     1     2   511     0  1.492546674E+01  2.495130661E+01  1.393211611E+02  1.423226025E+02  0.000000000E+00  0.00000E+00  9.000E+00
#pdf   2 -2 0.94146209E-01 0.56539491E-03 0.94846371E+02 0.60610855E+00 0.18211269E+01
#rwgt            1           7   2769.5892350508893         54217137    18475911           0
</event>
<event>
      6  10013  3.31628E+03  2.20671E+00 -1.00000E+00  3.44056E-01
      21    -1     0     0   501   511  0.000000000E+00  0.000000000E+00  1.150992031E+00  1.150992031E+00  0.000000000E+00  0.00000E+00  9.000E+00
      -1    -1     0     0     0   501  0.000000000E+00  0.000000000E+00 -8.243928611E+02  8.243928611E+02  0.000000000E+00  0.00000E+00  9.000E+00
      23     2     1     2     0     0  2.109249561E+00  6.485598192E-01 -8.230855415E+02  8.233316140E+02  2.000671307E+01  0.00000E+00  9.000E+00
      13     1     3     3     0     0 -8.109700061E+00  4.018560649E+00 -3.047577190E+02  3.048921031E+02  1.056583668E-01  0.00000E+00  9.000E+00
     -13     1     3     3     0     0  1.021894962E+01 -3.370000829E+00 -5.183278225E+02  5.184395110E+02  1.056583668E-01  0.00000E+00  9.000E+00
      -1     1     1     2     0   511 -2.109249561E+00 -6.485598192E-01 -1.563276370E-01  2.212239110E+00  0.000000000E+00  0.00000E+00  9.000E+00
#pdf   1 -1 0.18814560E-04 0.12588405E+00 0.20006713E+02 0.36112470E+01 0.95959705E-01
#rwgt            1           6   93.920734329864061         54217137    18475950           0
</event>
<event>
      6  10013  3.31628E+03  5.68798E+00 -1.00000E+00  2.29054E-01
      -2    -1     0     0     0   511  0.000000000E+00  0.000000000E+00  7.489349968E+00  7.489349968E+00  0.000000000E+00  0.00000E+00  9.000E+00
       2    -1     0     0   501     0  0.000000000E+00  0.000000000E+00 -3.673185836E+02  3.673185836E+02  0.000000000E+00  0.00000E+00  9.000E+00
      23     2     1     2     0     0  2.457603050E-02  5.687926238E+00 -3.558394076E+02  3.678601411E+02  9.309697236E+01  0.00000E+00  9.000E+00
      13     1     3     3     0     0 -2.956141905E+01  3.799225594E+01 -2.169480927E+02  2.222246051E+02  1.056583668E-01  0.00000E+00  9.000E+00
     -13     1     3     3     0     0  2.958599508E+01 -3.230432970E+01 -1.388913149E+02  1.456355360E+02  1.056583668E-01  0.00000E+00  9.000E+00
      21     1     1     2   501   511 -2.457603050E-02 -5.687926238E+00 -3.989825986E+00  6.947792474E+00  1.685873940E-07  0.00000E+00  9.000E+00
#pdf  -2  2 0.92295077E-03 0.55565583E-01 0.93096972E+02 0.15005579E+01 0.62979389E+00
#rwgt            1           4   1213.3352158878258         54217137    18476117           0
</event>
<event>
      6  10013  3.31628E+03  2.49171E+01 -1.00000E+00  1.58821E-01
       1    -1     0     0   501     0  0.000000000E+00  0.000000000E+00  1.018326751E+03  1.018326751E+03  0.000000000E+00  0.00000E+00  9.000E+00
      21    -1     0     0   511   501  0.000000000E+00  0.000000000E+00 -3.573777347E+00  3.573777347E+00  0.000000000E+00  0.00000E+00  9.000E+00
      23     2     1     2     0     0  9.102741304E+00 -2.319487045E+01  8.102294793E+02  8.158647992E+02  9.242672583E+01  0.00000E+00  9.000E+00
      13     1     3     3     0     0 -1.004090493E+01 -3.252966443E+01  1.064137982E+02  1.117269281E+02  1.056583668E-01  0.00000E+00  9.000E+00
     -13     1     3     3     0     0  1.914364623E+01  9.334793972E+00  7.038156810E+02  7.041378711E+02  1.056583668E-01  0.00000E+00  9.000E+00
       1     1     1     2   511     0 -9.102741304E+00  2.319487045E+01  2.045234947E+02  2.060357294E+02  0.000000000E+00  0.00000E+00  9.000E+00
#pdf   1 -1 0.12077243E+00 0.41854354E-03 0.92426726E+02 0.33174660E+00 0.20373443E+01
#rwgt            1           6   926.71116001641803         54217137    18476232           0
</event>
<event>
      6  10013  3.31628E+03  3.07921E+00 -1.00000E+00  2.93340E-01
       2    -1     0     0   501     0  0.000000000E+00  0.000000000E+00  3.618174408E+02  3.618174408E+02  0.000000000E+00  0.00000E+00  9.000E+00
      -2    -1     0     0     0   511  0.000000000E+00  0.000000000E+00 -6.224090394E+00  6.224090394E+00  0.000000000E+00  0.00000E+00  9.000E+00
      23     2     1     2     0     0 -2.111234991E+00  2.241471865E+00  3.461609265E+02  3.581192265E+02  9.171974628E+01  0.00000E+00  9.000E+00
      13     1     3     3     0     0 -1.989202461E+00  3.063297401E+01  3.128406553E+02  3.143431609E+02  1.056583668E-01  0.00000E+00  9.000E+00
     -13     1     3     3     0     0 -1.220325304E-01 -2.839150214E+01  3.332027120E+01  4.377606563E+01  1.056583668E-01  0.00000E+00  9.000E+00
      21     1     1     2   501   511  2.111234991E+00 -2.241471865E+00  9.432423896E+00  9.922304664E+00  1.685873940E-07  0.00000E+00  9.000E+00
#pdf   2 -2 0.54144892E-01 0.91935129E-03 0.91719746E+02 0.63062580E+00 0.14991783E+01
#rwgt            1           7   1323.7490831748955         54217137    18476273           0
</event>
<event>
      6  10013  3.31628E+03  3.21840E+01 -1.00000E+00  1.50916E-01
       2    -1     0     0   501     0  0.000000000E+00  0.000000000E+00  6.253527704E+02  6.253527704E+02  0.000000000E+00  0.00000E+00  9.000E+00
      21    -1     0     0   511   501  0.000000000E+00  0.000000000E+00 -6.806904852E+00  6.806904852E+00  0.000000000E+00  0.00000E+00  9.000E+00
      23     2     1     2     0     0 -2.586380776E+01 -1.915394924E+01  4.213497717E+02  4.323544958E+02  9.142740054E+01  0.00000E+00  9.000E+00
      13     1     3     3     0     0 -2.475231064E+01  2.961404772E+01  2.837690156E+02  2.863817977E+02  1.056583668E-01  0.00000E+00  9.000E+00
     -13     1     3     3     0     0 -1.111497115E+00 -4.876799695E+01  1.375807562E+02  1.459726981E+02  1.056583668E-01  0.00000E+00  9.000E+00
       2     1     1     2   511     0  2.586380776E+01  1.915394924E+01  1.971960938E+02  1.998051795E+02  0.000000000E+00  0.00000E+00  9.000E+00
#pdf   2 -2 0.61943703E-01 0.79848888E-03 0.91427401E+02 0.62627936E+00 0.15833490E+01
#rwgt            1           7   1063.6437800336412         54217137    18476433           0
</event>
<event>
      6  10013  3.31628E+03  8.92788E+00 -1.00000E+00  2.01566E-01
       3    -1     0     0   511     0  0.000000000E+00  0.000000000E+00  2.852620421E+02  2.852620421E+02  0.000000000E+00  0.00000E+00  9.000E+00
      -3    -1     0     0     0   501  0.000000000E+00  0.000000000E+00 -9.912113299E+00  9.912113299E+00  0.000000000E+00  0.00000E+00  9.000E+00
      23     2     1     2     0     0 -6.364484400E+00  6.261015410E+00  2.051682382E+02  2.244268822E+02  9.051912778E+01  0.00000E+00  9.000E+00
      13     1     3     3     0     0 -2.789060489E+01 -6.962613582E+00  1.469394144E+01  3.228446852E+01  1.056583668E-01  0.00000E+00  9.000E+00
     -13     1     3     3     0     0  2.152612049E+01  1.322362899E+01  1.904742968E+02  1.921424137E+02  1.056583668E-01  0.00000E+00  9.000E+00
      21     1     1     2   511   501  6.364484400E+00 -6.261015410E+00  7.018169060E+01  7.074727324E+01  9.536743164E-07  0.00000E+00  9.000E+00
#pdf   3 -3 0.32886210E-01 0.14742807E-02 0.90519128E+02 0.22060831E+00 0.12008735E+01
#rwgt            1           8   284.34911048618318         54217137    18476466           0
</event>
<event>
      6  10013  3.31628E+03  1.65542E+01 -1.00000E+00  1.73397E-01
      21    -1     0     0   511   501  0.000000000E+00  0.000000000E+00  2.177685065E+02  2.177685065E+02  0.000000000E+00  0.00000E+00  9.000E+00
       1    -1     0     0   501     0  0.000000000E+00  0.000000000E+00 -2.170685327E+01  2.170685327E+01  0.000000000E+00  0.00000E+00  9.000E+00
      23     2     1     2     0     0  1.510966099E+01  6.763066682E+00  8.326986860E+01  1.254752387E+02  9.239114449E+01  0.00000E+00  9.000E+00
      13     1     3     3     0     0  1.611386373E+00  2.546648692E+01  9.585917262E+01  9.919743274E+01  1.056583668E-01  0.00000E+00  9.000E+00
     -13     1     3     3     0     0  1.349827462E+01 -1.870342024E+01 -1.258930402E+01  2.627780595E+01  1.056583668E-01  0.00000E+00  9.000E+00
       1     1     1     2   511     0 -1.510966099E+01 -6.763066682E+00  1.127917846E+02  1.140001211E+02  0.000000000E+00  0.00000E+00  9.000E+00
#pdf  -1  1 0.15805611E-01 0.31956757E-02 0.92391144E+02 0.43000751E+00 0.98866299E+00
#rwgt            1           5   464.25100365185529         54217137    18476525           0
</event>
<event>
      6  10013  3.31628E+03  1.32296E+00 -1.00000E+00  4.91890E-01
       2    -1     0     0   501     0  0.000000000E+00  0.000000000E+00  3.918241150E+02  3.918241150E+02  0.000000000E+00  0.00000E+00  9.000E+00
      -2    -1     0     0     0   511  0.000000000E+00  0.000000000E+00 -1.978002756E+00  1.978002756E+00  0.000000000E+00  0.00000E+00  9.000E+00
      23     2     1     2     0     0  1.252376925E+00  4.263650547E-01  3.912049285E+02  3.919056429E+02  2.338774425E+01  0.00000E+00  9.000E+00
      13     1     3     3     0     0  6.299025891E+00  1.888690851E+00  3.232788061E+01  3.299011835E+01  1.056583668E-01  0.00000E+00  9.000E+00
     -13     1     3     3     0     0 -5.046648966E+00 -1.462325796E+00  3.588770479E+02  3.589155245E+02  1.056583668E-01  0.00000E+00  9.000E+00
      21     1     1     2   501   511 -1.252376925E+00 -4.263650547E-01 -1.358816306E+00  1.896474855E+00  2.723286581E-07  0.00000E+00  9.000E+00
#pdf   2 -2 0.60143129E-01 0.53815075E-04 0.23387744E+02 0.62791292E+00 0.28090033E+01
#rwgt            1           7   1955.5270226128089         54217137    18476578           0
</event>
<event>
      6  10013  3.31628E+03  9.06306E+00 -1.00000E+00  2.00768E-01
      21    -1     0     0   511   501  0.000000000E+00  0.000000000E+00  2.418814954E-01  2.418814954E-01  0.000000000E+00  0.00000E+00  9.000E+00
       2    -1     0     0   501     0  0.000000000E+00  0.000000000E+00 -1.611964416E+03  1.611964416E+03  0.000000000E+00  0.00000E+00  9.000E+00
      23     2     1     2     0     0 -7.098564281E+00  5.634656583E+00 -1.170935425E+03  1.171326025E+03  2.885737034E+01  0.00000E+00  9.000E+00
      13     1     3     3     0     0 -1.699170090E+01  7.210737732E+00 -9.288399862E+02  9.290233817E+02  1.056583668E-01  0.00000E+00  9.000E+00
     -13     1     3     3     0     0  9.893136616E+00 -1.576081149E+00 -2.420954390E+02  2.423026432E+02  1.056583668E-01  0.00000E+00  9.000E+00
       2     1     1     2   511     0  7.098564281E+00 -5.634656583E+00 -4.407871097E+02  4.408802729E+02  0.000000000E+00  0.00000E+00  9.000E+00
#pdf  -2  2 0.28665644E-04 0.17189573E+00 0.28857370E+02 0.36617187E+01 0.56644398E+00
#rwgt            1           4   3273.8137241433947         54217137    18476758           0
</event>
<event>
      6  10013  3.31628E+03  3.41158E+00 -1.00000E+00  2.80769E-01
       2    -1     0     0   501     0  0.000000000E+00  0.000000000E+00  3.094314074E+02  3.094314074E+02  0.000000000E+00  0.00000E+00  9.000E+00
      21    -1     0     0   511   501  0.000000000E+00  0.000000000E+00 -1.573847380E+00  1.573847380E+00  0.000000000E+00  0.00000E+00  9.000E+00
      23     2     1     2     0     0  3.313771967E+00 -8.110254696E-01  3.066082174E+02  3.073721151E+02  2.138642801E+01  0.00000E+00  9.000E+00
      13     1     3     3     0     0 -1.528255952E+00 -7.208816220E+00  4.196108102E+01  4.260335763E+01  1.056583668E-01  0.00000E+00  9.000E+00
     -13     1     3     3     0     0  4.842027920E+00  6.397790751E+00  2.646471364E+02  2.647687575E+02  1.056583668E-01  0.00000E+00  9.000E+00
       2     1     1     2   511     0 -3.313771967E+00  8.110254696E-01  1.249342588E+00  3.633139671E+00  0.000000000E+00  0.00000E+00  9.000E+00
#pdf   2 -2 0.46639570E-01 0.58027688E-04 0.21386428E+02 0.62503744E+00 0.26593627E+01
#rwgt            1           7   2257.6243652277731         54217137    18476885           0
</event>
<event>
      6  10013  3.31628E+03  3.91895E+01 -1.00000E+00  1.45362E-01
      -1    -1     0     0     0   501  0.000000000E+00  0.000000000E+00  2.373680384E+01  2.373680384E+01  0.000000000E+00  0.00000E+00  9.000E+00
       1    -1     0     0   511     0  0.000000000E+00  0.000000000E+00 -2.224262221E+02  2.224262221E+02  0.000000000E+00  0.00000E+00  9.000E+00
      23     2     1     2     0     0  3.790788213E+01 -9.940368167E+00 -1.032591496E+02  1.429992986E+02  9.083242261E+01  0.00000E+00  9.000E+00
      13     1     3     3     0     0 -2.212722625E+01 -2.491172748E+01 -5.591563820E+01  6.509053746E+01  1.056583668E-01  0.00000E+00  9.000E+00
     -13     1     3     3     0     0  6.003510838E+01  1.497135931E+01 -4.734351136E+01  7.790876118E+01  1.056583668E-01  0.00000E+00  9.000E+00
      21     1     1     2   511   501 -3.790788213E+01  9.940368167E+00 -9.543026867E+01  1.031637273E+02  1.348699152E-06  0.00000E+00  9.000E+00
#pdf  -1  1 0.28068340E-02 0.17393155E-01 0.90832423E+02 0.95779889E+00 0.57599372E+00
#rwgt            1           5   733.67213173404343         54217137    18476986           0
</event>
<event>
      6  10013  3.31628E+03  8.05511E+00 -1.00000E+00  2.07216E-01
       3    -1     0     0   501     0  0.000000000E+00  0.000000000E+00  3.060471442E+01  3.060471442E+01  0.000000000E+00  0.00000E+00  9.000E+00
      21    -1     0     0   511   501  0.000000000E+00  0.000000000E+00 -8.311919993E+01  8.311919993E+01  0.000000000E+00  0.00000E+00  9.000E+00
      23     2     1     2     0     0  5.965661659E+00 -5.412543509E+00 -4.997095158E+01  1.052767662E+02  9.231043691E+01  0.00000E+00  9.000E+00
      13     1     3     3     0     0  2.764957470E+01  1.147022210E+01 -6.669626039E+01  7.310586358E+01  1.056583668E-01  0.00000E+00  9.000E+00
     -13     1     3     3     0     0 -2.168391304E+01 -1.688276561E+01  1.672530881E+01  3.217090266E+01  1.056583668E-01  0.00000E+00  9.000E+00
       3     1     1     2   511     0 -5.965661659E+00  5.412543509E+00 -2.543533940E+00  8.447148109E+00  0.000000000E+00  0.00000E+00  9.000E+00
#pdf   3 -3 0.42381882E-02 0.11896924E-01 0.92310437E+02 0.75695377E+00 0.44357449E+00
#rwgt            1           8   348.90338041829818         54217137    18477038           0
</event>
<event>
      6  10013  3.31628E+03  6.57639E+01 -1.00000E+00  1.32582E-01
      -3    -1     0     0     0   501  0.000000000E+00  0.000000000E+00  2.704203900E+02  2.704203900E+02  0.000000000E+00  0.00000E+00  9.000E+00
      21    -1     0     0   501   511  0.000000000E+00  0.000000000E+00 -3.196142829E+01  3.196142829E+01  0.000000000E+00  0.00000E+00  9.000E+00
      23     2     1     2     0     0  3.598648685E+01 -5.504420840E+01  1.253317714E+02  1.715282615E+02  9.689684972E+01  0.00000E+00  9.000E+00
      13     1     3     3     0     0 -3.004396499E+01 -2.612124133E+01  7.047368014E+01  8.094139755E+01  1.056583668E-01  0.00000E+00  9.000E+00
     -13     1     3     3     0     0  6.603045184E+01 -2.892296706E+01  5.485809121E+01  9.058686400E+01  1.056583668E-01  0.00000E+00  9.000E+00
      -3     1     1     2     0   511 -3.598648685E+01  5.504420840E+01  1.131271904E+02  1.308535568E+02  0.000000000E+00  0.00000E+00  9.000E+00
#pdf  -3  3 0.18894599E-01 0.29403222E-02 0.96896850E+02 0.33364697E+00 0.90049909E+00
#rwgt            1           3   303.76905830347420         54217137    18477136           0
</event>
<event>
      6  10013  3.31628E+03  7.66623E+00 -1.00000E+00  2.10053E-01
       2    -1     0     0   511     0  0.000000000E+00  0.000000000E+00  1.451605000E+03  1.451605000E+03  0.000000000E+00  0.00000E+00  9.000E+00
      -2    -1     0     0     0   501  0.000000000E+00  0.000000000E+00 -1.866299519E-01  1.866299519E-01  0.000000000E+00  0.00000E+00  9.000E+00
      23     2     1     2     0     0 -6.221892438E+00  4.478738844E+00  1.109518236E+03  1.109805559E+03  2.406016989E+01  0.00000E+00  9.000E+00
      13     1     3     3     0     0  9.122774756E+00  1.531178169E+00  5.090427048E+02  5.091267582E+02  1.056583668E-01  0.00000E+00  9.000E+00
     -13     1     3     3     0     0 -1.534466719E+01  2.947560675E+00  6.004755308E+02  6.006788003E+02  1.056583668E-01  0.00000E+00  9.000E+00
      21     1     1     2   511   501  6.221892438E+00 -4.478738844E+00  3.419001350E+02  3.419860719E+02  3.814697266E-06  0.00000E+00  9.000E+00
#pdf   2 -2 0.16265988E+00 0.21058635E-04 0.24060170E+02 0.58235876E+00 0.37530490E+01
#rwgt            1           7   3515.1313494588362         54217137    18477182           0
</event>
<event>
      6  10013  3.31628E+03  2.14208E+00 -1.00000E+00  3.49515E-01
      -2    -1     0     0     0   511  0.000000000E+00  0.000000000E+00  1.571044561E+01  1.571044561E+01  0.000000000E+00  0.00000E+00  9.000E+00
       2    -1     0     0   501     0  0.000000000E+00  0.000000000E+00 -1.389198458E+02  1.389198458E+02  0.000000000E+00  0.00000E+00  9.000E+00
      23     2     1     2     0     0 -9.415738443E-01  1.924043877E+00 -1.223702460E+02  1.523297076E+02  9.069329745E+01  0.00000E+00  9.000E+00
      13     1     3     3     0     0  3.168271891E+01  9.040289798E+00 -9.014837775E+00  3.415845401E+01  1.056583668E-01  0.00000E+00  9.000E+00
     -13     1     3     3     0     0 -3.262429275E+01 -7.116245922E+00 -1.133554082E+02  1.181712536E+02  1.056583668E-01  0.00000E+00  9.000E+00
      21     1     1     2   501   511  9.415738443E-01 -1.924043877E+00 -8.391541815E-01  2.300583814E+00  1.825012075E-08  0.00000E+00  9.000E+00
#pdf  -2  2 0.23039314E-02 0.21124874E-01 0.90693297E+02 0.10295220E+01 0.67514415E+00
#rwgt            1           4   782.83435170998314         54217137    18477211           0
</event>
<event>
      6  10013  3.31628E+03  6.65268E+00 -1.00000E+00  2.18652E-01
      21    -1     0     0   511   501  0.000000000E+00  0.000000000E+00  6.722983793E+00  6.722983793E+00  0.000000000E+00  0.00000E+00  9.000E+00
       1    -1     0     0   501     0  0.000000000E+00  0.000000000E+00 -3.887565634E+02  3.887565634E+02  0.000000000E+00  0.00000E+00  9.000E+00
      23     2     1     2     0     0 -8.404591244E-01 -6.599379025E+00 -3.769766354E+02  3.871230611E+02  8.779876207E+01  0.00000E+00  9.000E+00
      13     1     3     3     0     0 -3.067908897E+01 -6.388453514E+00 -3.299070561E+02  3.313920574E+02  1.056583668E-01  0.00000E+00  9.000E+00
     -13     1     3     3     0     0  2.983862984E+01 -2.109255104E-01 -4.706957927E+01  5.573100373E+01  1.056583668E-01  0.00000E+00  9.000E+00
       1     1     1     2   511     0  8.404591244E-01  6.599379025E+00 -5.056944190E+00  8.356486079E+00  0.000000000E+00  0.00000E+00  9.000E+00
#pdf  -1  1 0.77826333E-03 0.58608892E-01 0.87798762E+02 0.15952142E+01 0.42753261E+00
#rwgt            1           5   1073.0080976833665         54217137    18477470           0
</event>
<event>
      6  10013  3.31628E+03  2.93428E+00 -1.00000E+00  2.99676E-01
       2    -1     0     0   501     0  0.000000000E+00  0.000000000E+00  3.444235451E+01  3.444235451E+01  0.000000000E+00  0.00000E+00  9.000E+00
      21    -1     0     0   511   501  0.000000000E+00  0.000000000E+00 -1.609896615E+03  1.609896615E+03  0.000000000E+00  0.00000E+00  9.000E+00
      23     2     1     2     0     0 -2.083090723E+00 -2.066574833E+00 -2.677589800E+01  9.565782723E+01  9.178704265E+01  0.00000E+00  9.000E+00
      13     1     3     3     0     0 -2.244090479E+01 -3.356931421E+01 -3.906916742E+01  5.618633349E+01  1.056583668E-01  0.00000E+00  9.000E+00
     -13     1     3     3     0     0  2.035781406E+01  3.150273938E+01  1.229326943E+01  3.947149375E+01  1.056583668E-01  0.00000E+00  9.000E+00
       2     1     1     2   511     0  2.083090723E+00  2.066574833E+00 -1.548678362E+03  1.548681142E+03  0.000000000E+00  0.00000E+00  9.000E+00
#pdf   2 -2 0.52959045E-02 0.94131701E-02 0.91787043E+02 0.89112432E+00 0.53874372E+00
#rwgt            1           7   431.05757514458401         54217137    18477590           0
</event>
<event>
      6  10013  3.31628E+03  2.50747E+00 -1.00000E+00  3.22528E-01
       2    -1     0     0   501     0  0.000000000E+00  0.000000000E+00  2.248320088E+01  2.248320088E+01  0.000000000E+00  0.00000E+00  9.000E+00
      -2    -1     0     0     0   511  0.000000000E+00  0.000000000E+00 -1.137890945E+01  1.137890945E+01  0.000000000E+00  0.00000E+00  9.000E+00
      23     2     1     2     0     0  2.504865660E+00 -1.143340075E-01  1.327189293E+01  3.054760879E+01  2.739937657E+01  0.00000E+00  9.000E+00
      13     1     3     3     0     0 -5.447851823E+00 -1.019163796E+01  1.341820778E+01  1.770898183E+01  1.056583668E-01  0.00000E+00  9.000E+00
     -13     1     3     3     0     0  7.952717483E+00  1.007730396E+01 -1.463148418E-01  1.283862696E+01  1.056583668E-01  0.00000E+00  9.000E+00
      21     1     1     2   501   511 -2.504865660E+00  1.143340075E-01 -2.167601507E+00  3.314501551E+00  7.300048300E-08  0.00000E+00  9.000E+00
#pdf   2 -2 0.33567038E-02 0.13233711E-02 0.27399377E+02 0.86749235E+00 0.10418924E+01
#rwgt            1           7   1059.4731509334870         54217137    18477779           0
</event>
<event>
      6  10013  3.31628E+03  1.10769E+01 -1.00000E+00  1.90704E-01
      -1    -1     0     0     0   511  0.000000000E+00  0.000000000E+00  3.169599846E+01  3.169599846E+01  0.000000000E+00  0.00000E+00  9.000E+00
       1    -1     0     0   501     0  0.000000000E+00  0.000000000E+00 -9.097979427E+01  9.097979427E+01  0.000000000E+00  0.00000E+00  9.000E+00
      23     2     1     2     0     0 -1.398869928E+00 -1.098818571E+01 -6.222802858E+01  1.112143108E+02  9.150736755E+01  0.00000E+00  9.000E+00
      13     1     3     3     0     0 -3.217544651E+00  3.162639830E+01 -6.071501844E+01  6.853397909E+01  1.056583668E-01  0.00000E+00  9.000E+00
     -13     1     3     3     0     0  1.818674723E+00 -4.261458401E+01 -1.513010147E+00  4.268033167E+01  1.056583668E-01  0.00000E+00  9.000E+00
      21     1     1     2   501   511  1.398869928E+00  1.098818571E+01  2.944232780E+00  1.146148197E+01  3.153981341E-07  0.00000E+00  9.000E+00
#pdf  -1  1 0.37408680E-02 0.13245033E-01 0.91507368E+02 0.84800816E+00 0.62161173E+00
#rwgt            1           5   801.20789407595430         54217137    18477879           0
</event>
<event>
      6  10013  3.31628E+03  8.55856E+00 -1.00000E+00  2.03847E-01
      -2    -1     0     0     0   511  0.000000000E+00  0.000000000E+00  1.435006170E+01  1.435006170E+01  0.000000000E+00  0.00000E+00  9.000E+00
       2    -1     0     0   501     0  0.000000000E+00  0.000000000E+00 -1.719756440E+02  1.719756440E+02  0.000000000E+00  0.00000E+00  9.000E+00
      23     2     1     2     0     0  3.198613575E+00 -7.938374421E+00 -1.476337405E+02  1.731694973E+02  9.010385419E+01  0.00000E+00  9.000E+00
      13     1     3     3     0     0  1.824048971E+01 -2.029982390E+01 -1.509691036E+02  1.534160348E+02  1.056583668E-01  0.00000E+00  9.000E+00
     -13     1     3     3     0     0 -1.504187613E+01  1.236144948E+01  3.335363110E+00  1.975346252E+01  1.056583668E-01  0.00000E+00  9.000E+00
      21     1     1     2   501   511 -3.198613575E+00  7.938374421E+00 -9.991841767E+00  1.315620839E+01  2.064765462E-07  0.00000E+00  9.000E+00
#pdf  -2  2 0.19554874E-02 0.24566598E-01 0.90103854E+02 0.11018383E+01 0.66416176E+00
#rwgt            1           4   778.61832379886812         54217137    18477932           0
</event>
<event>
      6  10013  3.31628E+03  3.13042E+00 -1.00000E+00  2.91236E-01
       2    -1     0     0   511     0  0.000000000E+00  0.000000000E+00  4.681854464E+00  4.681854464E+00  0.000000000E+00  0.00000E+00  9.000E+00
      -2    -1     0     0     0   501  0.000000000E+00  0.000000000E+00 -3.745759354E+01  3.745759354E+01  0.000000000E+00  0.00000E+00  9.000E+00
      23     2     1     2     0     0  2.458618794E+00 -1.937716346E+00 -3.024984177E+01  3.811704720E+01  2.297948671E+01  0.00000E+00  9.000E+00
      13     1     3     3     0     0  4.854167005E+00  9.083112844E+00 -2.150932338E+01  2.384801946E+01  1.056583668E-01  0.00000E+00  9.000E+00
     -13     1     3     3     0     0 -2.395548211E+00 -1.102082919E+01 -8.740518391E+00  1.426902774E+01  1.056583668E-01  0.00000E+00  9.000E+00
      21     1     1     2   511   501 -2.458618794E+00  1.937716346E+00 -2.525897304E+00  4.022400801E+00  5.960464478E-08  0.00000E+00  9.000E+00
#pdf   2 -2 0.59963132E-03 0.52108628E-02 0.22979487E+02 0.13582388E+01 0.60426075E+00
#rwgt            1           7   630.23444590919644         54217137    18478108           0
</event>
<event>
      6  10013  3.31628E+03  3.32526E+01 -1.00000E+00  1.49965E-01
       1    -1     0     0   501     0  0.000000000E+00  0.000000000E+00  1.597262166E+03  1.597262166E+03  0.000000000E+00  0.00000E+00  9.000E+00
      21    -1     0     0   511   501  0.000000000E+00  0.000000000E+00 -6.055464847E+00  6.055464847E+00  0.000000000E+00  0.00000E+00  9.000E+00
      23     2     1     2     0     0 -2.819626824E+01 -1.762693013E+01  1.534712596E+03  1.537763667E+03  9.093187667E+01  0.00000E+00  9.000E+00
      13     1     3     3     0     0 -5.828890647E+01 -2.793545719E+01  1.090068173E+03  1.091982885E+03  1.056583668E-01  0.00000E+00  9.000E+00
     -13     1     3     3     0     0  3.009263823E+01  1.030852706E+01  4.446444221E+02  4.457807823E+02  1.056583668E-01  0.00000E+00  9.000E+00
       1     1     1     2   511     0  2.819626824E+01  1.762693013E+01  5.649410513E+01  6.555396344E+01  0.000000000E+00  0.00000E+00  9.000E+00
#pdf   1 -1 0.22196826E+00 0.22042189E-03 0.90931877E+02 0.20629460E+00 0.25712892E+01
#rwgt            1           6   1211.2231203853264         54217137    18478205           0
</event>
<event>
      6  10013  3.31628E+03  1.02174E+01 -1.00000E+00  1.94626E-01
      -2    -1     0     0     0   501  0.000000000E+00  0.000000000E+00  5.039994492E+01  5.039994492E+01  0.000000000E+00  0.00000E+00  9.000E+00
       2    -1     0     0   511     0  0.000000000E+00  0.000000000E+00 -4.166978620E+01  4.166978620E+01  0.000000000E+00  0.00000E+00  9.000E+00
      23     2     1     2     0     0  4.976306291E+00  8.923609543E+00  3.496752925E+01  6.391313253E+01  5.251443589E+01  0.00000E+00  9.000E+00
      13     1     3     3     0     0  3.253486874E+00 -1.926931292E+01  7.679769684E-01  1.955741674E+01  1.056583668E-01  0.00000E+00  9.000E+00
     -13     1     3     3     0     0  1.722819416E+00  2.819292246E+01  3.419955228E+01  4.435571579E+01  1.056583668E-01  0.00000E+00  9.000E+00
      21     1     1     2   511   501 -4.976306291E+00 -8.923609543E+00 -2.623737053E+01  2.815659858E+01  4.768371582E-07  0.00000E+00  9.000E+00
#pdf  -2  2 0.74662019E-02 0.21856015E-02 0.52514436E+02 0.57459210E+00 0.10808436E+01
#rwgt            1           4   595.22244088490311         54217137    18478256           0
</event>
<event>
      6  10013  3.31628E+03  2.42193E+00 -1.00000E+00  3.28087E-01
       3    -1     0     0   511     0  0.000000000E+00  0.000000000E+00  8.340903781E+00  8.340903781E+00  0.000000000E+00  0.00000E+00  9.000E+00
      -3    -1     0     0     0   501  0.000000000E+00  0.000000000E+00 -2.703912788E+02  2.703912788E+02  0.000000000E+00  0.00000E+00  9.000E+00
      23     2     1     2     0     0 -1.808503164E+00  1.610919937E+00 -2.573654295E+02  2.734582409E+02  9.239361149E+01  0.00000E+00  9.000E+00
      13     1     3     3     0     0  1.414020153E+01  1.695044620E+01 -2.487249657E+02  2.497025883E+02  1.056583668E-01  0.00000E+00  9.000E+00
     -13     1     3     3     0     0 -1.594870469E+01 -1.533952626E+01 -8.640463864E+00  2.375565252E+01  1.056583668E-01  0.00000E+00  9.000E+00
      21     1     1     2   511   501  1.808503164E+00 -1.610919937E+00 -4.684945477E+00  5.273941682E+00  5.960464478E-08  0.00000E+00  9.000E+00
#pdf   3 -3 0.12374835E-02 0.40818569E-01 0.92393611E+02 0.12947606E+01 0.18281719E+00
#rwgt            1           8   205.47695831767302         54217137    18478365           0
</event>
<event>
      6  10013  3.31628E+03  1.39963E+00 -1.00000E+00  4.69278E-01
      -2    -1     0     0     0   511  0.000000000E+00  0.000000000E+00  2.418672723E-01  2.418672723E-01  0.000000000E+00  0.00000E+00  9.000E+00
       2    -1     0     0   501     0  0.000000000E+00  0.000000000E+00 -2.690114174E+03  2.690114174E+03  0.000000000E+00  0.00000E+00  9.000E+00
      23     2     1     2     0     0  1.396917437E+00  8.710456045E-02 -2.659440298E+03  2.659891864E+03  4.899049398E+01  0.00000E+00  9.000E+00
      13     1     3     3     0     0 -5.901392138E+00  1.501853761E+01 -3.317425800E+02  3.321348121E+02  1.056583668E-01  0.00000E+00  9.000E+00
     -13     1     3     3     0     0  7.298309575E+00 -1.493143304E+01 -2.327697718E+03  2.327757051E+03  1.056583668E-01  0.00000E+00  9.000E+00
      21     1     1     2   501   511 -1.396917437E+00 -8.710456045E-02 -3.043200913E+01  3.046417807E+01  4.768371582E-07  0.00000E+00  9.000E+00
#pdf  -2  2 0.34721649E-04 0.40901251E+00 0.48990494E+02 0.41095867E+01 0.21629194E+00
#rwgt            1           4   24059.351625731375         54217137    18478499           0
</event>
<event>
      6  10013  3.31628E+03  2.33073E+00 -1.00000E+00  3.34478E-01
      -4    -1     0     0     0   501  0.000000000E+00  0.000000000E+00  1.148026047E+02  1.148026047E+02  0.000000000E+00  0.00000E+00  9.000E+00
      21    -1     0     0   501   511  0.000000000E+00  0.000000000E+00 -1.067630519E+01  1.067630519E+01  0.000000000E+00  0.00000E+00  9.000E+00
      23     2     1     2     0     0  4.288717209E-01 -2.290927343E+00  1.137126108E+02  1.156133313E+02  2.074734324E+01  0.00000E+00  9.000E+00
      13     1     3     3     0     0 -9.940798312E+00  9.638730094E-01  5.187703698E+01  5.282978944E+01  1.056583668E-01  0.00000E+00  9.000E+00
     -13     1     3     3     0     0  1.036967003E+01 -3.254800352E+00  6.183557377E+01  6.278354187E+01  1.056583668E-01  0.00000E+00  9.000E+00
      -4     1     1     2     0   511 -4.288717209E-01  2.290927343E+00 -9.586311209E+00  9.865578627E+00  0.000000000E+00  0.00000E+00  9.000E+00
#pdf  -4  4 0.17530189E-01 0.14529534E-03 0.20747343E+02 0.18910782E+00 0.15623465E+01
#rwgt            1           2   336.41705210644631         54217137    18478760           0
</event>
<event>
      6  10013  3.31628E+03  6.88237E+00 -1.00000E+00  2.16527E-01
       1    -1     0     0   501     0  0.000000000E+00  0.000000000E+00  7.516840754E+02  7.516840754E+02  0.000000000E+00  0.00000E+00  9.000E+00
      21    -1     0     0   511   501  0.000000000E+00  0.000000000E+00 -3.433174578E+00  3.433174578E+00  0.000000000E+00  0.00000E+00  9.000E+00
      23     2     1     2     0     0  5.640377386E+00  3.943751163E+00  7.345963498E+02  7.398262790E+02  8.754289745E+01  0.00000E+00  9.000E+00
      13     1     3     3     0     0  3.631064376E+00  2.653458376E+01  7.164622974E+01  7.648831390E+01  1.056583668E-01  0.00000E+00  9.000E+00
     -13     1     3     3     0     0  2.009313010E+00 -2.259083260E+01  6.629501201E+02  6.633379651E+02  1.056583668E-01  0.00000E+00  9.000E+00
       1     1     1     2   511     0 -5.640377386E+00 -3.943751163E+00  1.365455094E+01  1.529097092E+01  0.000000000E+00  0.00000E+00  9.000E+00
#pdf   1 -1 0.11306825E+00 0.40106473E-03 0.87542897E+02 0.34332157E+00 0.20484477E+01
#rwgt            1           6   861.91350032854280         54217137    18478897           0
</event>
<event>
      6  10013  3.31628E+03  1.82184E+01 -1.00000E+00  1.69740E-01
      21    -1     0     0   511   501  0.000000000E+00  0.000000000E+00  2.183014472E+00  2.183014472E+00  0.000000000E+00  0.00000E+00  9.000E+00
       2    -1     0     0   501     0  0.000000000E+00  0.000000000E+00 -1.591493312E+03  1.591493312E+03  0.000000000E+00  0.00000E+00  9.000E+00
      23     2     1     2     0     0 -9.713050904E+00  1.541317682E+01 -1.486756125E+03  1.489516508E+03  8.879045271E+01  0.00000E+00  9.000E+00
      13     1     3     3     0     0  1.798335222E+01  4.522673007E+01 -6.838494111E+02  6.855792342E+02  1.056583668E-01  0.00000E+00  9.000E+00
     -13     1     3     3     0     0 -2.769640312E+01 -2.981355325E+01 -8.029067138E+02  8.039372743E+02  1.056583668E-01  0.00000E+00  9.000E+00
       2     1     1     2   511     0  9.713050904E+00 -1.541317682E+01 -1.025541728E+02  1.041598182E+02  0.000000000E+00  0.00000E+00  9.000E+00
#pdf  -2  2 0.20800380E-03 0.22427174E+00 0.88790453E+02 0.26078600E+01 0.45718156E+00
#rwgt            1           4   1803.7945224125485         54217137    18478983           0
</event>
<event>
      6  10013  3.31628E+03  7.10237E+00 -1.00000E+00  2.14596E-01
      -2    -1     0     0     0   511  0.000000000E+00  0.000000000E+00  3.415615495E-01  3.415615495E-01  0.000000000E+00  0.00000E+00  9.000E+00
       2    -1     0     0   501     0  0.000000000E+00  0.000000000E+00 -1.486531537E+03  1.486531537E+03  0.000000000E+00  0.00000E+00  9.000E+00
      23     2     1     2     0     0 -4.723046527E+00 -5.304386137E+00 -1.289142361E+03  1.289697527E+03  3.716504242E+01  0.00000E+00  9.000E+00
      13     1     3     3     0     0  4.238694430E+00  3.161109039E+00 -2.801059772E+01  2.850550630E+01  1.056583668E-01  0.00000E+00  9.000E+00
     -13     1     3     3     0     0 -8.961740957E+00 -8.465495177E+00 -1.261131763E+03  1.261192020E+03  1.056583668E-01  0.00000E+00  9.000E+00
      21     1     1     2   501   511  4.723046527E+00  5.304386137E+00 -1.970476152E+02  1.971755724E+02  0.000000000E+00  0.00000E+00  9.000E+00
#pdf  -2  2 0.41945995E-04 0.19484626E+00 0.37165042E+02 0.35481976E+01 0.53008840E+00
#rwgt            1           4   2798.6459482618029         54217137    18479038           0
</event>
<event>
      6  10013  3.31628E+03  1.29773E+00 -1.00000E+00  5.00168E-01
       2    -1     0     0   511     0  0.000000000E+00  0.000000000E+00  2.047812612E+03  2.047812612E+03  0.000000000E+00  0.00000E+00  9.000E+00
      -2    -1     0     0     0   501  0.000000000E+00  0.000000000E+00 -7.205802972E-02  7.205802972E-02  0.000000000E+00  0.00000E+00  9.000E+00
      23     2     1     2     0     0 -7.105901098E-01  1.085897621E+00  1.666881633E+03  1.667023538E+03  2.171207321E+01  0.00000E+00  9.000E+00
      13     1     3     3     0     0 -5.269926611E+00  5.924060027E+00  2.488232532E+02  2.489495714E+02  1.056583668E-01  0.00000E+00  9.000E+00
     -13     1     3     3     0     0  4.559336502E+00 -4.838162407E+00  1.418058380E+03  1.418073967E+03  1.056583668E-01  0.00000E+00  9.000E+00
      21     1     1     2   511   501  7.105901098E-01 -1.085897621E+00  3.808589209E+02  3.808611318E+02  0.000000000E+00  0.00000E+00  9.000E+00
#pdf   2 -2 0.25599738E+00 0.10896333E-04 0.21712073E+02 0.47160823E+00 0.43599509E+01
#rwgt            1           7   3245.7507671909202         54217137    18479106           0
</event>
<event>
      6  10013  3.31628E+03  4.11401E+00 -1.00000E+00  2.60521E-01
       1    -1     0     0   501     0  0.000000000E+00  0.000000000E+00  8.530538022E+02  8.530538022E+02  0.000000000E+00  0.00000E+00  9.000E+00
      21    -1     0     0   511   501  0.000000000E+00  0.000000000E+00 -2.715719653E+00  2.715719653E+00  0.000000000E+00  0.00000E+00  9.000E+00
      23     2     1     2     0     0  2.092641632E+00 -3.542020471E+00  8.131566284E+02  8.183611593E+02  9.205628520E+01  0.00000E+00  9.000E+00
      13     1     3     3     0     0  4.448687825E+00  4.367552467E+01  4.510232245E+02  4.531548328E+02  1.056583668E-01  0.00000E+00  9.000E+00
     -13     1     3     3     0     0 -2.356046193E+00 -4.721754514E+01  3.621334039E+02  3.652063265E+02  1.056583668E-01  0.00000E+00  9.000E+00
       1     1     1     2   511     0 -2.092641632E+00  3.542020471E+00  3.718145419E+01  3.740836262E+01  0.000000000E+00  0.00000E+00  9.000E+00
#pdf   1 -1 0.12537623E+00 0.39994934E-03 0.92056285E+02 0.32550643E+00 0.20706597E+01
#rwgt            1           6   1357.1413995629393         54217137    18479295           0
</event>
<event>
      6  10013  3.31628E+03  1.44917E+01 -1.00000E+00  1.78757E-01
       3    -1     0     0   501     0  0.000000000E+00  0.000000000E+00  8.280602985E+01  8.280602985E+01  0.000000000E+00  0.00000E+00  9.000E+00
      21    -1     0     0   511   501  0.000000000E+00  0.000000000E+00 -5.741934639E+00  5.741934639E+00  0.000000000E+00  0.00000E+00  9.000E+00
      23     2     1     2     0     0 -1.269061214E+01  6.997020513E+00  6.411427484E+01  6.911325893E+01  2.135397829E+01  0.00000E+00  9.000E+00
      13     1     3     3     0     0 -1.435876063E+01  1.201906601E+01  5.838008880E+01  6.130968836E+01  1.056583668E-01  0.00000E+00  9.000E+00
     -13     1     3     3     0     0  1.668148492E+00 -5.022045500E+00  5.734186044E+00  7.803570573E+00  1.056583668E-01  0.00000E+00  9.000E+00
       3     1     1     2   511     0  1.269061214E+01 -6.997020513E+00  1.294982037E+01  1.943470556E+01  0.000000000E+00  0.00000E+00  9.000E+00
#pdf   3 -3 0.84799162E-02 0.31818473E-03 0.21353978E+02 0.45591554E+00 0.15220066E+01
#rwgt            1           8   144.56157066404478         54217137    18479425           0
</event>
<event>
      6  10013  3.31628E+03  1.79012E+01 -1.00000E+00  1.70398E-01
      -4    -1     0     0     0   501  0.000000000E+00  0.000000000E+00  1.742190257E+00  1.742190257E+00  0.000000000E+00  0.00000E+00  9.000E+00
      21    -1     0     0   501   511  0.000000000E+00  0.000000000E+00 -2.943446466E+02  2.943446466E+02  0.000000000E+00  0.00000E+00  9.000E+00
      23     2     1     2     0     0  1.551608726E+01 -8.927789326E+00 -1.711111790E+02  1.732838041E+02  2.068300740E+01  0.00000E+00  9.000E+00
      13     1     3     3     0     0  3.061839014E+00 -1.112660876E+01 -1.229235527E+02  1.234641133E+02  1.056583668E-01  0.00000E+00  9.000E+00
     -13     1     3     3     0     0  1.245424825E+01  2.198819435E+00 -4.818762624E+01  4.981969081E+01  1.056583668E-01  0.00000E+00  9.000E+00
      -4     1     1     2     0   511 -1.551608726E+01  8.927789326E+00 -1.214912773E+02  1.228030328E+02  0.000000000E+00  0.00000E+00  9.000E+00
#pdf  -4  4 0.12636719E-03 0.20031171E-01 0.20683007E+02 0.16325313E+01 0.17129641E+00
#rwgt            1           2   276.72323841100092         54217137    18479452           0
</event>
<event>
      6  10013  3.31628E+03  5.19596E+01 -1.00000E+00  1.38101E-01
       3    -1     0     0   501     0  0.000000000E+00  0.000000000E+00  4.813064974E+01  4.813064974E+01  0.000000000E+00  0.00000E+00  9.000E+00
      21    -1     0     0   511   501  0.000000000E+00  0.000000000E+00 -1.340001954E+02  1.340001954E+02  0.000000000E+00  0.00000E+00  9.000E+00
      23     2     1     2     0     0 -5.066496233E+01  1.152659915E+01 -4.167465028E+01  1.139180188E+02  9.241611137E+01  0.00000E+00  9.000E+00
      13     1     3     3     0     0 -7.520397888E+01  3.748599915E+00 -1.486549641E+01  7.675079535E+01  1.056583668E-01  0.00000E+00  9.000E+00
     -13     1     3     3     0     0  2.453901655E+01  7.777999235E+00 -2.680915387E+01  3.716722347E+01  1.056583668E-01  0.00000E+00  9.000E+00
       3     1     1     2   511     0  5.066496233E+01 -1.152659915E+01 -4.419489535E+01  6.821282629E+01  0.000000000E+00  0.00000E+00  9.000E+00
#pdf   3 -3 0.48440517E-02 0.10432777E-01 0.92416111E+02 0.71055286E+00 0.47810283E+00
#rwgt            1           8   448.08024822333749         54217137    18479492           0
</event>
<event>
      6  10013  3.31628E+03  3.53987E+01 -1.00000E+00  1.48178E-01
       3    -1     0     0   501     0  0.000000000E+00  0.000000000E+00  1.276780648E+02  1.276780648E+02  0.000000000E+00  0.00000E+00  9.000E+00
      21    -1     0     0   511   501  0.000000000E+00  0.000000000E+00 -4.119140151E+01  4.119140151E+01  0.000000000E+00  0.00000E+00  9.000E+00
      23     2     1     2     0     0 -2.534492222E+01 -2.471233210E+01  9.078648462E+01  1.332106258E+02  9.082852305E+01  0.00000E+00  9.000E+00
      13     1     3     3     0     0 -1.833877302E+01  5.297915327E+00 -1.420204818E+01  2.379260051E+01  1.056583668E-01  0.00000E+00  9.000E+00
     -13     1     3     3     0     0 -7.006149197E+00 -3.001024742E+01  1.049885328E+02  1.094180253E+02  1.056583668E-01  0.00000E+00  9.000E+00
       3     1     1     2   511     0  2.534492222E+01  2.471233210E+01 -4.299821362E+00  3.565884047E+01  0.000000000E+00  0.00000E+00  9.000E+00
#pdf   3 -3 0.16054381E-01 0.30406345E-02 0.90828523E+02 0.36968505E+00 0.87984482E+00
#rwgt            1           8   335.67102364831976         54217137    18479564           0
</event>
<event>
      6  10013  3.31628E+03  3.39180E+01 -1.00000E+00  1.49394E-01
       2    -1     0     0   501     0  0.000000000E+00  0.000000000E+00  2.566501105E+01  2.566501105E+01  0.000000000E+00  0.00000E+00  9.000E+00
      21    -1     0     0   511   501  0.000000000E+00  0.000000000E+00 -2.307244017E+02  2.307244017E+02  0.000000000E+00  0.00000E+00  9.000E+00
      23     2     1     2     0     0  2.735372890E+00 -3.380747832E+01 -7.790167507E+01  1.247857939E+02  9.139144123E+01  0.00000E+00  9.000E+00
      13     1     3     3     0     0 -4.400075687E+00 -6.486174507E+01 -4.557056638E+01  7.939202934E+01  1.056583668E-01  0.00000E+00  9.000E+00
     -13     1     3     3     0     0  7.135448578E+00  3.105426675E+01 -3.233110869E+01  4.539376458E+01  1.056583668E-01  0.00000E+00  9.000E+00
       2     1     1     2   511     0 -2.735372890E+00  3.380747832E+01 -1.271577156E+02  1.316036189E+02  0.000000000E+00  0.00000E+00  9.000E+00
#pdf   2 -2 0.33811279E-02 0.14617151E-01 0.91391441E+02 0.10154221E+01 0.42526926E+00
#rwgt            1           7   402.77810214931867         54217137    18479606           0
</event>
<event>
      6  10013  3.31628E+03  7.10739E+00 -1.00000E+00  2.14553E-01
      21    -1     0     0   511   501  0.000000000E+00  0.000000000E+00  1.287080152E+02  1.287080152E+02  0.000000000E+00  0.00000E+00  9.000E+00
       2    -1     0     0   501     0  0.000000000E+00  0.000000000E+00 -7.839139561E+00  7.839139561E+00  0.000000000E+00  0.00000E+00  9.000E+00
      23     2     1     2     0     0  7.107226630E+00  4.848039623E-02  9.528829552E+00  2.498048912E+01  2.197069009E+01  0.00000E+00  9.000E+00
      13     1     3     3     0     0  1.093132299E+01  2.476110984E+00 -3.045215966E+00  1.161505281E+01  1.056583668E-01  0.00000E+00  9.000E+00
     -13     1     3     3     0     0 -3.824096357E+00 -2.427630588E+00  1.257404552E+01  1.336543630E+01  1.056583668E-01  0.00000E+00  9.000E+00
       2     1     1     2   511     0 -7.107226630E+00 -4.848039623E-02  1.113400461E+02  1.115666656E+02  0.000000000E+00  0.00000E+00  9.000E+00
#pdf  -2  2 0.25256954E-02 0.11308883E-02 0.21970690E+02 0.78928654E+00 0.11159949E+01
#rwgt            1           4   774.87980963228063         54217137    18479635           0
</event>
<event>
      6  10013  3.31628E+03  6.48385E+00 -1.00000E+00  2.20290E-01
      -2    -1     0     0     0   501  0.000000000E+00  0.000000000E+00  6.586162760E+00  6.586162760E+00  0.000000000E+00  0.00000E+00  9.000E+00
       2    -1     0     0   511     0  0.000000000E+00  0.000000000E+00 -3.826723470E+02  3.826723470E+02  0.000000000E+00  0.00000E+00  9.000E+00
      23     2     1     2     0     0  3.530485223E+00 -5.438381491E+00 -3.134183073E+02  3.262561041E+02  9.038788520E+01  0.00000E+00  9.000E+00
      13     1     3     3     0     0  7.388151235E+00 -6.554019877E+00  2.599190046E+00  1.021307534E+01  1.056583668E-01  0.00000E+00  9.000E+00
     -13     1     3     3     0     0 -3.857666012E+00  1.115638386E+00 -3.160174974E+02  3.160430288E+02  1.056583668E-01  0.00000E+00  9.000E+00
      21     1     1     2   511   501 -3.530485223E+00  5.438381491E+00 -6.266787689E+01  6.300240561E+01  0.000000000E+00  0.00000E+00  9.000E+00
#pdf  -2  2 0.98499184E-03 0.49079611E-01 0.90387885E+02 0.14554237E+01 0.63363922E+00
#rwgt            1           4   1240.2577689385630         54217137    18479698           0
</event>
<event>
      6  10013  3.31628E+03  2.38730E+00 -1.00000E+00  3.30454E-01
      -1    -1     0     0     0   501  0.000000000E+00  0.000000000E+00  4.360803115E+02  4.360803115E+02  0.000000000E+00  0.00000E+00  9.000E+00
      21    -1     0     0   501   511  0.000000000E+00  0.000000000E+00 -5.206179997E+00  5.206179997E+00  0.000000000E+00  0.00000E+00  9.000E+00
      23     2     1     2     0     0  1.524857498E+00  1.836852968E+00  4.259965151E+02  4.358559887E+02  9.215048972E+01  0.00000E+00  9.000E+00
      13     1     3     3     0     0  1.757888865E+01 -2.325533861E+01  4.450213584E+01  5.320036991E+01  1.056583668E-01  0.00000E+00  9.000E+00
     -13     1     3     3     0     0 -1.605403115E+01  2.509219158E+01  3.814943793E+02  3.826556188E+02  1.056583668E-01  0.00000E+00  9.000E+00
      -1     1     1     2     0   511 -1.524857498E+00 -1.836852968E+00  4.877616331E+00  5.430502765E+00  0.000000000E+00  0.00000E+00  9.000E+00
#pdf  -1  1 0.66274110E-01 0.75816666E-03 0.92150490E+02 0.17151111E+00 0.16634092E+01
#rwgt            1           5   488.38265649632632         54217137    18479853           0
</event>
<event>
      6  10013  3.31628E+03  6.14408E+00 -1.00000E+00  2.23806E-01
       2    -1     0     0   511     0  0.000000000E+00  0.000000000E+00  2.458462128E+02  2.458462128E+02  0.000000000E+00  0.00000E+00  9.000E+00
      -2    -1     0     0     0   501  0.000000000E+00  0.000000000E+00 -1.153035032E+01  1.153035032E+01  0.000000000E+00  0.00000E+00  9.000E+00
      23     2     1     2     0     0  6.000494199E+00 -1.320524182E+00  1.722036325E+02  1.949611898E+02  9.120320588E+01  0.00000E+00  9.000E+00
      13     1     3     3     0     0 -5.058419132E+00  3.162185515E+01  1.768370348E+01  3.658215220E+01  1.056583668E-01  0.00000E+00  9.000E+00
     -13     1     3     3     0     0  1.105891333E+01 -3.294237933E+01  1.545199290E+02  1.583790376E+02  1.056583668E-01  0.00000E+00  9.000E+00
      21     1     1     2   511   501 -6.000494199E+00  1.320524182E+00  6.211222995E+01  6.241537330E+01  9.536743164E-07  0.00000E+00  9.000E+00
#pdf   2 -2 0.28179577E-01 0.17466225E-02 0.91203206E+02 0.65610255E+00 0.11566142E+01
#rwgt            1           7   644.94631417288269         54217137    18479986           0
</event>
<event>
      6  10013  3.31628E+03  7.60017E+00 -1.00000E+00  2.10557E-01
      -2    -1     0     0     0   511  0.000000000E+00  0.000000000E+00  2.761696973E+00  2.761696973E+00  0.000000000E+00  0.00000E+00  9.000E+00
       2    -1     0     0   501     0  0.000000000E+00  0.000000000E+00 -9.397913321E+01  9.397913321E+01  0.000000000E+00  0.00000E+00  9.000E+00
      23     2     1     2     0     0 -1.616571475E+00  7.426252090E+00 -7.689519440E+01  8.052697393E+01  2.267068778E+01  0.00000E+00  9.000E+00
      13     1     3     3     0     0 -2.663714772E+00  1.519121835E+01 -4.146365272E+01  4.423928290E+01  1.056583668E-01  0.00000E+00  9.000E+00
     -13     1     3     3     0     0  1.047143297E+00 -7.764966263E+00 -3.543154169E+01  3.628769103E+01  1.056583668E-01  0.00000E+00  9.000E+00
      21     1     1     2   501   511  1.616571475E+00 -7.426252090E+00 -1.432224183E+01  1.621385625E+01  1.685873940E-07  0.00000E+00  9.000E+00
#pdf  -2  2 0.26487937E-03 0.11481392E-01 0.22670688E+02 0.16995046E+01 0.66788254E+00
#rwgt            1           4   1337.6215969710827         54217137    18480146           0
</event>
<event>
      6  10013  3.31628E+03  3.55584E+00 -1.00000E+00  2.76007E-01
      21    -1     0     0   511   501  0.000000000E+00  0.000000000E+00  4.708177366E+01  4.708177366E+01  0.000000000E+00  0.00000E+00  9.000E+00
       2    -1     0     0   501     0  0.000000000E+00  0.000000000E+00 -8.559881612E+02  8.559881612E+02  0.000000000E+00  0.00000E+00  9.000E+00
      23     2     1     2     0     0  2.184993384E+00 -2.805322621E+00 -8.533237429E+02  8.585104746E+02  9.416039918E+01  0.00000E+00  9.000E+00
      13     1     3     3     0     0 -4.420903671E+01 -1.373168770E+01 -3.879179199E+02  3.906703495E+02  1.056583668E-01  0.00000E+00  9.000E+00
     -13     1     3     3     0     0  4.639403010E+01  1.092636508E+01 -4.654058230E+02  4.678401252E+02  1.056583668E-01  0.00000E+00  9.000E+00
       2     1     1     2   511     0 -2.184993384E+00  2.805322621E+00  4.441735541E+01  4.455946020E+01  0.000000000E+00  0.00000E+00  9.000E+00
#pdf  -2  2 0.39869517E-03 0.13158576E+00 0.94160399E+02 0.20764459E+01 0.57344673E+00
#rwgt            1           4   1264.5841516912485         54217137    18480230           0
</event>
<event>
      6  10013  3.31628E+03  1.36460E+01 -1.00000E+00  1.81294E-01
      21    -1     0     0   501   511  0.000000000E+00  0.000000000E+00  5.488131260E+01  5.488131260E+01  0.000000000E+00  0.00000E+00  9.000E+00
      -5    -1     0     0     0   501  0.000000000E+00  0.000000000E+00 -4.770928046E+01  4.770928046E+01  0.000000000E+00  0.00000E+00  9.000E+00
      23     2     1     2     0     0 -1.134547313E+01  7.582476860E+00  6.168450644E+00  8.890772451E+01  8.763743480E+01  0.00000E+00  9.000E+00
      13     1     3     3     0     0 -1.295995808E+01 -1.100659393E+01 -3.763379204E+01  4.129672009E+01  1.056583668E-01  0.00000E+00  9.000E+00
     -13     1     3     3     0     0  1.614484954E+00  1.858907079E+01  4.380224268E+01  4.761100442E+01  1.056583668E-01  0.00000E+00  9.000E+00
      -5     1     1     2     0   511  1.134547313E+01 -7.582476860E+00  1.003581498E+00  1.368286855E+01  0.000000000E+00  0.00000E+00  9.000E+00
#pdf   5 -5 0.72264716E-02 0.62887786E-02 0.87637435E+02 0.27472062E+00 0.30126711E+00
#rwgt            1          10   97.999104738219913         54217137    18480451           0
</event>
<event>
      6  10013  3.31628E+03  9.24798E+00 -1.00000E+00  1.99705E-01
      -3    -1     0     0     0   501  0.000000000E+00  0.000000000E+00  3.928469258E+02  3.928469258E+02  0.000000000E+00  0.00000E+00  9.000E+00
       3    -1     0     0   511     0  0.000000000E+00  0.000000000E+00 -8.585837691E+00  8.585837691E+00  0.000000000E+00  0.00000E+00  9.000E+00
      23     2     1     2     0     0  7.244885492E+00  5.747764740E+00  3.806770721E+02  3.915145814E+02  9.101158732E+01  0.00000E+00  9.000E+00
      13     1     3     3     0     0  2.666891122E+01  2.711989865E+01  3.370818795E+02  3.392210553E+02  1.056583668E-01  0.00000E+00  9.000E+00
     -13     1     3     3     0     0 -1.942402573E+01 -2.137213391E+01  4.359519264E+01  5.229352606E+01  1.056583668E-01  0.00000E+00  9.000E+00
      21     1     1     2   511   501 -7.244885492E+00 -5.747764740E+00  3.584015946E+00  9.918182071E+00  4.214684851E-07  0.00000E+00  9.000E+00
#pdf  -3  3 0.59095056E-01 0.82938376E-03 0.91011587E+02 0.12581305E+00 0.15172470E+01
#rwgt            1           3   223.03561578537429         54217137    18480872           0
</event>
<event>
      6  10013  3.31628E+03  2.15884E+01 -1.00000E+00  1.63636E-01
      -2    -1     0     0     0   501  0.000000000E+00  0.000000000E+00  1.867106373E+01  1.867106373E+01  0.000000000E+00  0.00000E+00  9.000E+00
      21    -1     0     0   501   511  0.000000000E+00  0.000000000E+00 -5.637679071E+01  5.637679071E+01  0.000000000E+00  0.00000E+00  9.000E+00
      23     2     1     2     0     0  1.076359424E+01  1.871368802E+01 -1.234591547E+01  4.174354360E+01  3.352677622E+01  0.00000E+00  9.000E+00
      13     1     3     3     0     0  3.371553105E+00  2.767662868E+01 -6.055146462E+00  2.853137059E+01  1.056583668E-01  0.00000E+00  9.000E+00
     -13     1     3     3     0     0  7.392041137E+00 -8.962940659E+00 -6.290769005E+00  1.321217302E+01  1.056583668E-01  0.00000E+00  9.000E+00
      -2     1     1     2     0   511 -1.076359424E+01 -1.871368802E+01 -2.535981152E+01  3.330431084E+01  0.000000000E+00  0.00000E+00  9.000E+00
#pdf  -2  2 0.19012896E-02 0.34982321E-02 0.33526776E+02 0.95055661E+00 0.88522616E+00
#rwgt            1           4   1065.9392288937029         54217137    18481011           0
</event>
<event>
      6  10013  3.31628E+03  1.29751E+01 -1.00000E+00  1.83479E-01
       2    -1     0     0   501     0  0.000000000E+00  0.000000000E+00  2.310723994E+03  2.310723994E+03  0.000000000E+00  0.00000E+00  9.000E+00
      21    -1     0     0   511   501  0.000000000E+00  0.000000000E+00 -1.011808701E+00  1.011808701E+00  0.000000000E+00  0.00000E+00  9.000E+00
      23     2     1     2     0     0  8.525041256E+00  9.781477860E+00  2.265921917E+03  2.266063697E+03  2.177593866E+01  0.00000E+00  9.000E+00
      13     1     3     3     0     0  8.956758213E+00 -1.968277070E+00  1.673370549E+03  1.673395680E+03  1.056583668E-01  0.00000E+00  9.000E+00
     -13     1     3     3     0     0 -4.317169569E-01  1.174975493E+01  5.925513681E+02  5.926680168E+02  1.056583668E-01  0.00000E+00  9.000E+00
       2     1     1     2   511     0 -8.525041256E+00 -9.781477860E+00  4.379026845E+01  4.567210580E+01  0.000000000E+00  0.00000E+00  9.000E+00
#pdf   2 -2 0.29948166E+00 0.93690775E-05 0.21775939E+02 0.40708627E+00 0.45574731E+01
#rwgt            1           7   9612.1770724626331         54217137    18481072           0
</event>
<event>
      6  10013  3.31628E+03  2.64359E+00 -1.00000E+00  3.14438E-01
       3    -1     0     0   501     0  0.000000000E+00  0.000000000E+00  1.692288698E+02  1.692288698E+02  0.000000000E+00  0.00000E+00  9.000E+00
      21    -1     0     0   511   501  0.000000000E+00  0.000000000E+00 -1.132992935E+00  1.132992935E+00  0.000000000E+00  0.00000E+00  9.000E+00
      23     2     1     2     0     0  2.500984931E+00 -8.565427457E-01  1.627933393E+02  1.644368736E+02  2.303965069E+01  0.00000E+00  9.000E+00
      13     1     3     3     0     0  2.814093610E+00 -1.072820251E+01  1.203211878E+02  1.208313405E+02  1.056583668E-01  0.00000E+00  9.000E+00
     -13     1     3     3     0     0 -3.131086790E-01  9.871659766E+00  4.247215145E+01  4.360553309E+01  1.056583668E-01  0.00000E+00  9.000E+00
       3     1     1     2   511     0 -2.500984931E+00  8.565427457E-01  5.302537610E+00  5.924989131E+00  0.000000000E+00  0.00000E+00  9.000E+00
#pdf   3 -3 0.25007475E-01 0.12560162E-03 0.23039651E+02 0.25499675E+00 0.20913636E+01
#rwgt            1           8   127.40610423955476         54217137    18481097           0
</event>
<event>
      6  10013  3.31628E+03  4.60876E+00 -1.00000E+00  2.49672E-01
      21    -1     0     0   511   501  0.000000000E+00  0.000000000E+00  2.288259158E+00  2.288259158E+00  0.000000000E+00  0.00000E+00  9.000E+00
       1    -1     0     0   501     0  0.000000000E+00  0.000000000E+00 -9.766051894E+02  9.766051894E+02  0.000000000E+00  0.00000E+00  9.000E+00
      23     2     1     2     0     0  3.193691128E+00  3.322801096E+00 -7.639211010E+02  7.684471475E+02  8.315244593E+01  0.00000E+00  9.000E+00
      13     1     3     3     0     0 -3.222867596E+01 -1.667968839E+01 -5.098640517E+02  5.111538535E+02  1.056583668E-01  0.00000E+00  9.000E+00
     -13     1     3     3     0     0  3.542236708E+01  2.000248948E+01 -2.540570493E+02  2.572932940E+02  1.056583668E-01  0.00000E+00  9.000E+00
       1     1     1     2   511     0 -3.193691128E+00 -3.322801096E+00 -2.103958292E+02  2.104463010E+02  0.000000000E+00  0.00000E+00  9.000E+00
#pdf  -1  1 0.34762389E-03 0.11769384E+00 0.83152446E+02 0.21374997E+01 0.33777248E+00
#rwgt            1           5   891.80240983747592         54217137    18481194           0
</event>
<event>
      6  10013  3.31628E+03  1.34802E+01 -1.00000E+00  1.81819E-01
       2    -1     0     0   501     0  0.000000000E+00  0.000000000E+00  1.991450861E+01  1.991450861E+01  0.000000000E+00  0.00000E+00  9.000E+00
      -2    -1     0     0     0   511  0.000000000E+00  0.000000000E+00 -4.583425696E+01  4.583425696E+01  0.000000000E+00  0.00000E+00  9.000E+00
      23     2     1     2     0     0  1.308711000E+01 -3.231815082E+00 -1.046267782E+01  4.523930175E+01  4.189760995E+01  0.00000E+00  9.000E+00
      13     1     3     3     0     0  2.386259484E+00 -1.359321368E+01 -2.229158777E+01  2.621823299E+01  1.056583668E-01  0.00000E+00  9.000E+00
     -13     1     3     3     0     0  1.070085052E+01  1.036139860E+01  1.182890994E+01  1.902106876E+01  1.056583668E-01  0.00000E+00  9.000E+00
      21     1     1     2   501   511 -1.308711000E+01  3.231815082E+00 -1.545707053E+01  2.050946382E+01  1.685873940E-07  0.00000E+00  9.000E+00
#pdf   2 -2 0.25465622E-02 0.40788478E-02 0.41897610E+02 0.99823279E+00 0.72948747E+00
#rwgt            1           7   1602.9304743407761         54217137    18481298           0
</event>
<event>
      6  10013  3.31628E+03  4.01723E+00 -1.00000E+00  2.62923E-01
      21    -1     0     0   501   511  0.000000000E+00  0.000000000E+00  1.491843148E+00  1.491843148E+00  0.000000000E+00  0.00000E+00  9.000E+00
      -1    -1     0     0     0   501  0.000000000E+00  0.000000000E+00 -2.159050273E+03  2.159050273E+03  0.000000000E+00  0.00000E+00  9.000E+00
      23     2     1     2     0     0  3.643117228E+00 -1.692874347E+00 -2.150598232E+03  2.152505793E+03  9.051131318E+01  0.00000E+00  9.000E+00
      13     1     3     3     0     0 -2.908688610E+01 -1.680630256E+01 -3.647453585E+02  3.662890750E+02  1.056583668E-01  0.00000E+00  9.000E+00
     -13     1     3     3     0     0  3.273000332E+01  1.511342821E+01 -1.785852873E+03  1.786216718E+03  1.056583668E-01  0.00000E+00  9.000E+00
      -1     1     1     2     0   511 -3.643117228E+00  1.692874347E+00 -6.960198086E+00  8.036322797E+00  0.000000000E+00  0.00000E+00  9.000E+00
#pdf   1 -1 0.14659119E-03 0.33068245E+00 0.90511313E+02 0.29899725E+01 0.55179045E-02
#rwgt            1           6   96.946965203336902         54217137    18481395           0
</event>
<event>
      6  10013  3.31628E+03  5.33056E+01 -1.00000E+00  1.37479E-01
      -4    -1     0     0     0   501  0.000000000E+00  0.000000000E+00  2.017076962E+02  2.017076962E+02  0.000000000E+00  0.00000E+00  9.000E+00
      21    -1     0     0   501   511  0.000000000E+00  0.000000000E+00 -5.664338491E+01  5.664338491E+01  0.000000000E+00  0.00000E+00  9.000E+00
      23     2     1     2     0     0  2.648549148E+01 -4.626017744E+01  5.067999129E+00  1.085497036E+02  9.442387551E+01  0.00000E+00  9.000E+00
      13     1     3     3     0     0 -3.236441417E+01 -2.750126900E+01  1.680883614E+01  4.567628748E+01  1.056583668E-01  0.00000E+00  9.000E+00
     -13     1     3     3     0     0  5.884990566E+01 -1.875890844E+01 -1.174083701E+01  6.287341616E+01  1.056583668E-01  0.00000E+00  9.000E+00
      -4     1     1     2     0   511 -2.648549148E+01  4.626017744E+01  1.399963122E+02  1.498013775E+02  0.000000000E+00  0.00000E+00  9.000E+00
#pdf  -4  4 0.76107890E-02 0.69318196E-02 0.94423876E+02 0.41838320E+00 0.44303325E+00
#rwgt            1           2   159.91126386278586         54217137    18481485           0
</event>
<event>
      6  10013  3.31628E+03  1.16258E+01 -1.00000E+00  1.88432E-01
      21    -1     0     0   501   511  0.000000000E+00  0.000000000E+00  8.033492257E+00  8.033492257E+00  0.000000000E+00  0.00000E+00  9.000E+00
      -3    -1     0     0     0   501  0.000000000E+00  0.000000000E+00 -6.335947597E+02  6.335947597E+02  0.000000000E+00  0.00000E+00  9.000E+00
      23     2     1     2     0     0  1.063872474E+01 -4.688015122E+00 -6.112218592E+02  6.231680629E+02  1.208764391E+02  0.00000E+00  9.000E+00
      13     1     3     3     0     0 -2.162391849E+01 -8.740912541E+00 -1.907962631E+01  3.013371378E+01  1.056583668E-01  0.00000E+00  9.000E+00
     -13     1     3     3     0     0  3.226264322E+01  4.052897418E+00 -5.921422329E+02  5.930343492E+02  1.056583668E-01  0.00000E+00  9.000E+00
      -3     1     1     2     0   511 -1.063872474E+01  4.688015122E+00 -1.433940820E+01  1.846018898E+01  0.000000000E+00  0.00000E+00  9.000E+00
#pdf   3 -3 0.91471769E-03 0.94516913E-01 0.12087644E+03 0.15293410E+01 0.68244294E-01
#rwgt            1           8   288.06453286151390         54217137    18481529           0
</event>
<event>
      6  10013  3.31628E+03  6.38098E+00 -1.00000E+00  2.21323E-01
      -2    -1     0     0     0   511  0.000000000E+00  0.000000000E+00  1.161763818E+02  1.161763818E+02  0.000000000E+00  0.00000E+00  9.000E+00
       2    -1     0     0   501     0  0.000000000E+00  0.000000000E+00 -3.909274451E+01  3.909274451E+01  0.000000000E+00  0.00000E+00  9.000E+00
      23     2     1     2     0     0  2.969601065E-01 -6.374068573E+00  1.033653060E+01  8.821770434E+01  8.737735724E+01  0.00000E+00  9.000E+00
      13     1     3     3     0     0  2.879583014E+01  2.922561745E+01  1.146987554E+01  4.260171073E+01  1.056583668E-01  0.00000E+00  9.000E+00
     -13     1     3     3     0     0 -2.849887003E+01 -3.559968603E+01 -1.133344940E+00  4.561599361E+01  1.056583668E-01  0.00000E+00  9.000E+00
      21     1     1     2   501   511 -2.969601065E-01  6.374068573E+00  6.674710667E+01  6.705142194E+01  0.000000000E+00  0.00000E+00  9.000E+00
#pdf  -2  2 0.75609602E-02 0.59749483E-02 0.87377357E+02 0.59894016E+00 0.85890047E+00
#rwgt            1           4   477.66344784784809         54217137    18481644           0
</event>
<event>
      6  10013  3.31628E+03  7.07274E+00 -1.00000E+00  2.14850E-01
      21    -1     0     0   511   501  0.000000000E+00  0.000000000E+00  2.413357520E+00  2.413357520E+00  0.000000000E+00  0.00000E+00  9.000E+00
       2    -1     0     0   501     0  0.000000000E+00  0.000000000E+00 -1.048829423E+03  1.048829423E+03  0.000000000E+00  0.00000E+00  9.000E+00
      23     2     1     2     0     0  4.136727788E+00  5.736821542E+00 -1.011569226E+03  1.015685421E+03  9.107442316E+01  0.00000E+00  9.000E+00
      13     1     3     3     0     0  2.690516607E+01 -1.337835609E+01 -8.909516088E+02  8.914581587E+02  1.056583668E-01  0.00000E+00  9.000E+00
     -13     1     3     3     0     0 -2.276843828E+01  1.911517763E+01 -1.206176174E+02  1.242272618E+02  1.056583668E-01  0.00000E+00  9.000E+00
       2     1     1     2   511     0 -4.136727788E+00 -5.736821542E+00 -3.484683953E+01  3.555736019E+01  0.000000000E+00  0.00000E+00  9.000E+00
#pdf  -2  2 0.31567985E-03 0.15547454E+00 0.91074423E+02 0.22504065E+01 0.54805932E+00
#rwgt            1           4   1526.8568564532277         54217137    18481762           0
</event>
<event>
      6  10013  3.31628E+03  1.47796E+01 -1.00000E+00  1.77943E-01
       1    -1     0     0   511     0  0.000000000E+00  0.000000000E+00  1.497236819E+03  1.497236819E+03  0.000000000E+00  0.00000E+00  9.000E+00
      -1    -1     0     0     0   501  0.000000000E+00  0.000000000E+00 -1.890432281E+00  1.890432281E+00  0.000000000E+00  0.00000E+00  9.000E+00
      23     2     1     2     0     0  1.027662116E+00  1.474387591E+01  1.240976054E+03  1.244327911E+03  9.006633073E+01  0.00000E+00  9.000E+00
      13     1     3     3     0     0 -1.531759623E+01 -2.363749978E+01  1.541971325E+02  1.567486108E+02  1.056583668E-01  0.00000E+00  9.000E+00
     -13     1     3     3     0     0  1.634525834E+01  3.838137569E+01  1.086778922E+03  1.087579300E+03  1.056583668E-01  0.00000E+00  9.000E+00
      21     1     1     2   511   501 -1.027662116E+00 -1.474387591E+01  2.543703322E+02  2.547993404E+02  2.697398305E-06  0.00000E+00  9.000E+00
#pdf   1 -1 0.18865407E+00 0.25443219E-03 0.90066331E+02 0.24468740E+00 0.24358367E+01
#rwgt            1           6   1243.5005980532349         54217137    18481843           0
</event>
<event>
      6  10013  3.31628E+03  7.73029E+00 -1.00000E+00  2.09570E-01
       2    -1     0     0   501     0  0.000000000E+00  0.000000000E+00  8.710393755E+02  8.710393755E+02  0.000000000E+00  0.00000E+00  9.000E+00
      21    -1     0     0   511   501  0.000000000E+00  0.000000000E+00 -2.708088174E-01  2.708088174E-01  0.000000000E+00  0.00000E+00  9.000E+00
      23     2     1     2     0     0  7.568299409E+00 -1.574255290E+00  5.746596110E+02  5.751003413E+02  2.114182276E+01  0.00000E+00  9.000E+00
      13     1     3     3     0     0  2.635719824E-01 -1.383362456E+00  2.333352689E+00  2.727427421E+00  1.056583668E-01  0.00000E+00  9.000E+00
     -13     1     3     3     0     0  7.304727427E+00 -1.908928343E-01  5.723262583E+02  5.723729139E+02  1.056583668E-01  0.00000E+00  9.000E+00
       2     1     1     2   511     0 -7.568299409E+00  1.574255290E+00  2.961089558E+02  2.962098430E+02  0.000000000E+00  0.00000E+00  9.000E+00
#pdf   2 -2 0.83064640E-01 0.31840653E-04 0.21141823E+02 0.62883519E+00 0.31629555E+01
#rwgt            1           7   2484.7807869674648         54217137    18481894           0
</event>
<event>
      6  10013  3.31628E+03  2.24452E+00 -1.00000E+00  3.41018E-01
       2    -1     0     0   511     0  0.000000000E+00  0.000000000E+00  1.721473235E+01  1.721473235E+01  0.000000000E+00  0.00000E+00  9.000E+00
      -2    -1     0     0     0   501  0.000000000E+00  0.000000000E+00 -9.990893239E+00  9.990893239E+00  0.000000000E+00  0.00000E+00  9.000E+00
      23     2     1     2     0     0  1.123948048E+00  1.942832135E+00  3.324154689E+00  2.270613734E+01  2.234906738E+01  0.00000E+00  9.000E+00
      13     1     3     3     0     0 -9.070943164E+00 -3.302774277E+00 -2.316341091E+00  9.928087809E+00  1.056583668E-01  0.00000E+00  9.000E+00
     -13     1     3     3     0     0  1.019489121E+01  5.245606413E+00  5.640495780E+00  1.277804953E+01  1.056583668E-01  0.00000E+00  9.000E+00
      21     1     1     2   511   501 -1.123948048E+00 -1.942832135E+00  3.899684422E+00  4.499488250E+00  5.960464478E-08  0.00000E+00  9.000E+00
#pdf   2 -2 0.19923080E-02 0.14834593E-02 0.22349067E+02 0.95769379E+00 0.95718937E+00
#rwgt            1           7   1245.8804867147210         54217137    18481933           0
</event>
<event>
      6  10013  3.31628E+03  7.50222E+01 -1.00000E+00  1.29690E-01
       1    -1     0     0   501     0  0.000000000E+00  0.000000000E+00  4.961556838E+01  4.961556838E+01  0.000000000E+00  0.00000E+00  9.000E+00
      -1    -1     0     0     0   511  0.000000000E+00  0.000000000E+00 -1.892600529E+02  1.892600529E+02  0.000000000E+00  0.00000E+00  9.000E+00
      23     2     1     2     0     0  7.399997491E+01  1.234212971E+01 -7.792397290E+01  1.417275590E+02  9.157636689E+01  0.00000E+00  9.000E+00
      13     1     3     3     0     0  5.561488153E+01 -3.387741119E+01 -6.088034706E+01  8.914663123E+01  1.056583668E-01  0.00000E+00  9.000E+00
     -13     1     3     3     0     0  1.838509338E+01  4.621954090E+01 -1.704362583E+01  5.258092777E+01  1.056583668E-01  0.00000E+00  9.000E+00
      21     1     1     2   501   511 -7.399997491E+01 -1.234212971E+01 -6.172051165E+01  9.714806232E+01  1.907348633E-06  0.00000E+00  9.000E+00
#pdf   1 -1 0.37966056E-02 0.13070272E-01 0.91576367E+02 0.92972609E+00 0.47394555E+00
#rwgt            1           6   488.41127644577296         54217137    18482091           0
</event>
<event>
      6  10013  3.31628E+03  8.25412E+00 -1.00000E+00  2.05846E-01
      -2    -1     0     0     0   501  0.000000000E+00  0.000000000E+00  6.511824492E-01  6.511824492E-01  0.000000000E+00  0.00000E+00  9.000E+00
       2    -1     0     0   511     0  0.000000000E+00  0.000000000E+00 -7.802208958E+02  7.802208958E+02  0.000000000E+00  0.00000E+00  9.000E+00
      23     2     1     2     0     0  6.887828645E+00 -4.548432956E+00 -3.392165105E+02  3.404415234E+02  2.764885894E+01  0.00000E+00  9.000E+00
      13     1     3     3     0     0 -2.023243843E+00  2.580704782E+00 -4.708411530E+00  5.738802631E+00  1.056583668E-01  0.00000E+00  9.000E+00
     -13     1     3     3     0     0  8.911072487E+00 -7.129137738E+00 -3.345080990E+02  3.347027207E+02  1.056583668E-01  0.00000E+00  9.000E+00
      21     1     1     2   511   501 -6.887828645E+00  4.548432956E+00 -4.403532028E+02  4.404305549E+02  0.000000000E+00  0.00000E+00  9.000E+00
#pdf  -2  2 0.90294013E-04 0.50096659E-01 0.27648859E+02 0.25365214E+01 0.62790355E+00
#rwgt            1           4   2018.2825339998237         54217137    18482146           0
</event>
<event>
      6  10013  3.31628E+03  6.69690E+00 -1.00000E+00  2.18234E-01
      -2    -1     0     0     0   501  0.000000000E+00  0.000000000E+00  2.538213714E+02  2.538213714E+02  0.000000000E+00  0.00000E+00  9.000E+00
      21    -1     0     0   501   511  0.000000000E+00  0.000000000E+00 -1.255565328E+00  1.255565328E+00  0.000000000E+00  0.00000E+00  9.000E+00
      23     2     1     2     0     0 -5.967477201E+00  3.039357920E+00  2.372674754E+02  2.383770145E+02  2.197493313E+01  0.00000E+00  9.000E+00
      13     1     3     3     0     0 -1.117774532E+01  4.259375714E+00  2.193816311E+02  2.197075226E+02  1.056583668E-01  0.00000E+00  9.000E+00
     -13     1     3     3     0     0  5.210268121E+00 -1.220017794E+00  1.788584432E+01  1.866949190E+01  1.056583668E-01  0.00000E+00  9.000E+00
      -2     1     1     2     0   511  5.967477201E+00 -3.039357920E+00  1.529833073E+01  1.669992227E+01  0.000000000E+00  0.00000E+00  9.000E+00
#pdf  -2  2 0.34998879E-01 0.81642122E-04 0.21974933E+02 0.23448134E+00 0.24379717E+01
#rwgt            1           4   625.14231097942377         54217137    18482193           0
</event>
<event>
      6  10013  3.31628E+03  1.11552E+01 -1.00000E+00  1.90369E-01
      21    -1     0     0   501   511  0.000000000E+00  0.000000000E+00  5.906554652E+01  5.906554652E+01  0.000000000E+00  0.00000E+00  9.000E+00
      -4    -1     0     0     0   501  0.000000000E+00  0.000000000E+00 -7.689025843E+00  7.689025843E+00  0.000000000E+00  0.00000E+00  9.000E+00
      23     2     1     2     0     0  1.101190951E+01 -1.782046479E+00  1.917012367E+01  3.267100082E+01  2.398880598E+01  0.00000E+00  9.000E+00
      13     1     3     3     0     0 -1.600617130E+00  4.473292207E+00 -3.557303348E+00  5.936151039E+00  1.056583668E-01  0.00000E+00  9.000E+00
     -13     1     3     3     0     0  1.261252664E+01 -6.255338686E+00  2.272742702E+01  2.673484978E+01  1.056583668E-01  0.00000E+00  9.000E+00
      -4     1     1     2     0   511 -1.101190951E+01  1.782046479E+00  3.220639701E+01  3.408357154E+01  0.000000000E+00  0.00000E+00  9.000E+00
#pdf   4 -4 0.36159423E-02 0.94169240E-03 0.23988806E+02 0.48366777E+00 0.85493594E+00
#rwgt            1           9   196.75620979269618         54217137    18482342           0
</event>
<event>
      6  10013  3.31628E+03  1.39634E+01 -1.00000E+00  1.80315E-01
      -3    -1     0     0     0   511  0.000000000E+00  0.000000000E+00  1.157954755E+02  1.157954755E+02  0.000000000E+00  0.00000E+00  9.000E+00
       3    -1     0     0   501     0  0.000000000E+00  0.000000000E+00 -6.276371498E+01  6.276371498E+01  0.000000000E+00  0.00000E+00  9.000E+00
      23     2     1     2     0     0  9.577169155E+00  1.016136723E+01 -2.796064807E+01  9.637192989E+01  9.116345472E+01  0.00000E+00  9.000E+00
      13     1     3     3     0     0 -2.002346669E+01  4.088548940E+01 -3.006549115E-01  4.552651995E+01  1.056583668E-01  0.00000E+00  9.000E+00
     -13     1     3     3     0     0  2.960063585E+01 -3.072412217E+01 -2.765999316E+01  5.084540993E+01  1.056583668E-01  0.00000E+00  9.000E+00
      21     1     1     2   501   511 -9.577169155E+00 -1.016136723E+01  8.099240861E+01  8.218726060E+01  1.907348633E-06  0.00000E+00  9.000E+00
#pdf  -3  3 0.52017421E-02 0.94537917E-02 0.91163455E+02 0.68553200E+00 0.50434075E+00
#rwgt            1           3   397.20110447314437         54217137    18482412           0
</event>
<event>
      6  10013  3.31628E+03  3.52927E+00 -1.00000E+00  2.76857E-01
      21    -1     0     0   501   511  0.000000000E+00  0.000000000E+00  5.074552715E+02  5.074552715E+02  0.000000000E+00  0.00000E+00  9.000E+00
      -4    -1     0     0     0   501  0.000000000E+00  0.000000000E+00 -1.055149526E+00  1.055149526E+00  0.000000000E+00  0.00000E+00  9.000E+00
      23     2     1     2     0     0 -3.035705977E-01 -3.516191385E+00  1.443948352E+02  1.464879308E+02  2.442109106E+01  0.00000E+00  9.000E+00
      13     1     3     3     0     0 -2.985796167E+00  1.023443320E+01  6.126733517E+01  6.218807059E+01  1.056583668E-01  0.00000E+00  9.000E+00
     -13     1     3     3     0     0  2.682225570E+00 -1.375062458E+01  8.312749998E+01  8.429986019E+01  1.056583668E-01  0.00000E+00  9.000E+00
      -4     1     1     2     0   511  3.035705977E-01  3.516191385E+00  3.620052868E+02  3.620224902E+02  0.000000000E+00  0.00000E+00  9.000E+00
#pdf   4 -4 0.22145535E-01 0.15935190E-03 0.24421091E+02 0.16330778E+00 0.16217566E+01
#rwgt            1           9   253.07151132521653         54217137    18482449           0
</event>
<event>
      6  10013  3.31628E+03  3.27334E+00 -1.00000E+00  2.85702E-01
      -2    -1     0     0     0   501  0.000000000E+00  0.000000000E+00  1.405210478E+01  1.405210478E+01  0.000000000E+00  0.00000E+00  9.000E+00
       2    -1     0     0   511     0  0.000000000E+00  0.000000000E+00 -1.816830718E+02  1.816830718E+02  0.000000000E+00  0.00000E+00  9.000E+00
      23     2     1     2     0     0  3.236722770E+00 -4.882140472E-01 -1.592256906E+02  1.867150104E+02  9.746260726E+01  0.00000E+00  9.000E+00
      13     1     3     3     0     0 -4.680067400E+00  1.102927808E+01 -1.691497967E+02  1.695736208E+02  1.056583668E-01  0.00000E+00  9.000E+00
     -13     1     3     3     0     0  7.916790170E+00 -1.151749212E+01  9.924106028E+00  1.714138955E+01  1.056583668E-01  0.00000E+00  9.000E+00
      21     1     1     2   511   501 -3.236722770E+00  4.882140472E-01 -8.405276366E+00  9.020166187E+00  1.192092896E-07  0.00000E+00  9.000E+00
#pdf  -2  2 0.21133715E-02 0.26595827E-01 0.97462607E+02 0.10780508E+01 0.66056958E+00
#rwgt            1           4   1182.2838799638412         54217137    18482582           0
</event>
<event>
      6  10013  3.31628E+03  4.62812E+00 -1.00000E+00  2.49289E-01
       2    -1     0     0   501     0  0.000000000E+00  0.000000000E+00  1.003849844E+02  1.003849844E+02  0.000000000E+00  0.00000E+00  9.000E+00
      21    -1     0     0   511   501  0.000000000E+00  0.000000000E+00 -1.775754998E+00  1.775754998E+00  0.000000000E+00  0.00000E+00  9.000E+00
      23     2     1     2     0     0  1.695174637E+00 -4.306495721E+00  8.906247084E+01  9.155130390E+01  2.069052951E+01  0.00000E+00  9.000E+00
      13     1     3     3     0     0  1.003233355E+01 -5.476748298E+00  6.637295385E+01  6.735000115E+01  1.056583668E-01  0.00000E+00  9.000E+00
     -13     1     3     3     0     0 -8.337158916E+00  1.170252577E+00  2.268951699E+01  2.420130275E+01  1.056583668E-01  0.00000E+00  9.000E+00
       2     1     1     2   511     0 -1.695174637E+00  4.306495721E+00  9.546758518E+00  1.060943545E+01  0.000000000E+00  0.00000E+00  9.000E+00
#pdf   2 -2 0.13558318E-01 0.18683176E-03 0.20690530E+02 0.65002732E+00 0.18429195E+01
#rwgt            1           7   1388.9864781218082         54217137    18482880           0
</event>
<event>
      6  10013  3.31628E+03  1.21703E+01 -1.00000E+00  1.86334E-01
       2    -1     0     0   501     0  0.000000000E+00  0.000000000E+00  1.922512640E+01  1.922512640E+01  0.000000000E+00  0.00000E+00  9.000E+00
      -2    -1     0     0     0   511  0.000000000E+00  0.000000000E+00 -1.516880339E+02  1.516880339E+02  0.000000000E+00  0.00000E+00  9.000E+00
      23     2     1     2     0     0  8.872995873E+00 -8.329851243E+00 -1.008427040E+02  1.370316942E+02  9.197998577E+01  0.00000E+00  9.000E+00
      13     1     3     3     0     0  2.759243200E+01  1.088207983E+01  2.970169307E+00  2.980931120E+01  1.056583668E-01  0.00000E+00  9.000E+00
     -13     1     3     3     0     0 -1.871943613E+01 -1.921193107E+01 -1.038128733E+02  1.072223830E+02  1.056583668E-01  0.00000E+00  9.000E+00
      21     1     1     2   501   511 -8.872995873E+00  8.329851243E+00 -3.162020353E+01  3.388146616E+01  3.371747881E-07  0.00000E+00  9.000E+00
#pdf   2 -2 0.27597158E-02 0.18139930E-01 0.91979986E+02 0.10828588E+01 0.37529208E+00
#rwgt            1           7   393.72103729331866         54217137    18482938           0
</event>
<event>
      6  10013  3.31628E+03  1.56539E+00 -1.00000E+00  4.21031E-01
       2    -1     0     0   511     0  0.000000000E+00  0.000000000E+00  2.354995792E+03  2.354995792E+03  0.000000000E+00  0.00000E+00  9.000E+00
      -2    -1     0     0     0   501  0.000000000E+00  0.000000000E+00 -9.181457036E-01  9.181457036E-01  0.000000000E+00  0.00000E+00  9.000E+00
      23     2     1     2     0     0  9.673164091E-01  1.230753269E+00  2.314124575E+03  2.315930211E+03  9.142070604E+01  0.00000E+00  9.000E+00
      13     1     3     3     0     0  4.383354184E+01  1.387417949E+01  1.322654768E+03  1.323453633E+03  1.056583668E-01  0.00000E+00  9.000E+00
     -13     1     3     3     0     0 -4.286622543E+01 -1.264342622E+01  9.914698067E+02  9.924765782E+02  1.056583668E-01  0.00000E+00  9.000E+00
      21     1     1     2   511   501 -9.673164091E-01 -1.230753269E+00  3.995307211E+01  3.998372701E+01  4.768371582E-07  0.00000E+00  9.000E+00
#pdf   2 -2 0.35610586E+00 0.13887476E-03 0.91420706E+02 0.26406290E+00 0.30349120E+01
#rwgt            1           7   1379.4847767306665         54217137    18483000           0
</event>
<event>
      6  10013  3.31628E+03  1.24464E+01 -1.00000E+00  1.85323E-01
      21    -1     0     0   501   511  0.000000000E+00  0.000000000E+00  4.921706799E+01  4.921706799E+01  0.000000000E+00  0.00000E+00  9.000E+00
      -1    -1     0     0     0   501  0.000000000E+00  0.000000000E+00 -1.063682968E+01  1.063682968E+01  0.000000000E+00  0.00000E+00  9.000E+00
      23     2     1     2     0     0 -5.930974394E+00  1.094246916E+01  7.875697115E+00  2.672259920E+01  2.229700909E+01  0.00000E+00  9.000E+00
      13     1     3     3     0     0 -8.262934943E+00  4.416784969E+00 -6.059874758E+00  1.115873331E+01  1.056583668E-01  0.00000E+00  9.000E+00
     -13     1     3     3     0     0  2.331960550E+00  6.525684190E+00  1.393557187E+01  1.556386588E+01  1.056583668E-01  0.00000E+00  9.000E+00
      -1     1     1     2     0   511  5.930974394E+00 -1.094246916E+01  3.070454120E+01  3.313129847E+01  0.000000000E+00  0.00000E+00  9.000E+00
#pdf   1 -1 0.23238636E-02 0.12658898E-02 0.22297009E+02 0.88695317E+00 0.10183223E+01
#rwgt            1           6   174.04236900873377         54217137    18483231           0
</event>
<event>
      6  10013  3.31628E+03  3.67740E+01 -1.00000E+00  1.47110E-01
       2    -1     0     0   501     0  0.000000000E+00  0.000000000E+00  2.022869392E+03  2.022869392E+03  0.000000000E+00  0.00000E+00  9.000E+00
      21    -1     0     0   511   501  0.000000000E+00  0.000000000E+00 -2.535372834E+00  2.535372834E+00  0.000000000E+00  0.00000E+00  9.000E+00
      23     2     1     2     0     0 -2.007304179E+01  3.081232841E+01  1.732626338E+03  1.735356430E+03  9.008654910E+01  0.00000E+00  9.000E+00
      13     1     3     3     0     0  2.906308036E+01  1.659946278E+01  3.082064400E+02  3.100184279E+02  1.056583668E-01  0.00000E+00  9.000E+00
     -13     1     3     3     0     0 -4.913612214E+01  1.421286563E+01  1.424419898E+03  1.425338002E+03  1.056583668E-01  0.00000E+00  9.000E+00
       2     1     1     2   511     0  2.007304179E+01 -3.081232841E+01  2.877076816E+02  2.900483351E+02  0.000000000E+00  0.00000E+00  9.000E+00
#pdf   2 -2 0.24698262E+00 0.19443158E-03 0.90086549E+02 0.42328786E+00 0.26807689E+01
#rwgt            1           7   2481.1877039161568         54217137    18483284           0
</event>
<event>
      6  10013  3.31628E+03  1.42154E+01 -1.00000E+00  1.79561E-01
      -1    -1     0     0     0   501  0.000000000E+00  0.000000000E+00  8.690856185E+00  8.690856185E+00  0.000000000E+00  0.00000E+00  9.000E+00
       1    -1     0     0   511     0  0.000000000E+00  0.000000000E+00 -6.220752722E+02  6.220752722E+02  0.000000000E+00  0.00000E+00  9.000E+00
      23     2     1     2     0     0  8.893232637E+00  1.108997254E+01 -2.406153054E+02  2.577260677E+02  9.124101973E+01  0.00000E+00  9.000E+00
      13     1     3     3     0     0  8.850434006E+00  5.105146613E+01 -1.497943710E+02  1.585021991E+02  1.056583668E-01  0.00000E+00  9.000E+00
     -13     1     3     3     0     0  4.279863009E-02 -3.996149358E+01 -9.082093444E+01  9.922386859E+01  1.056583668E-01  0.00000E+00  9.000E+00
      21     1     1     2   511   501 -8.893232637E+00 -1.108997254E+01 -3.727691106E+02  3.730400607E+02  0.000000000E+00  0.00000E+00  9.000E+00
#pdf  -1  1 0.13005228E-02 0.37877000E-01 0.91241020E+02 0.13130935E+01 0.47492321E+00
#rwgt            1           5   826.63914803199941         54217137    18483340           0
</event>
<event>
      6  10013  3.31628E+03  4.99171E+00 -1.00000E+00  2.42597E-01
      -1    -1     0     0     0   501  0.000000000E+00  0.000000000E+00  1.656804583E+02  1.656804583E+02  0.000000000E+00  0.00000E+00  9.000E+00
      21    -1     0     0   501   511  0.000000000E+00  0.000000000E+00 -1.492338208E+01  1.492338208E+01  0.000000000E+00  0.00000E+00  9.000E+00
      23     2     1     2     0     0 -3.668627157E+00 -3.385013494E+00  1.499710630E+02  1.755506277E+02  9.111413730E+01  0.00000E+00  9.000E+00
      13     1     3     3     0     0  2.672802082E+01  4.846482952E+00  1.398630414E+02  1.424765139E+02  1.056583668E-01  0.00000E+00  9.000E+00
     -13     1     3     3     0     0 -3.039664798E+01 -8.231496447E+00  1.010802159E+01  3.307411384E+01  1.056583668E-01  0.00000E+00  9.000E+00
      -1     1     1     2     0   511  3.668627157E+00  3.385013494E+00  7.860132589E-01  5.053212683E+00  0.000000000E+00  0.00000E+00  9.000E+00
#pdf  -1  1 0.25002636E-01 0.19647126E-02 0.91114137E+02 0.33413000E+00 0.11743733E+01
#rwgt            1           5   371.19150197889724         54217137    18483393           0
</event>
<event>
      6  10013  3.31628E+03  1.02900E+01 -1.00000E+00  1.94276E-01
      -1    -1     0     0     0   501  0.000000000E+00  0.000000000E+00  2.479092709E+01  2.479092709E+01  0.000000000E+00  0.00000E+00  9.000E+00
      21    -1     0     0   501   511  0.000000000E+00  0.000000000E+00 -1.164905587E+02  1.164905587E+02  0.000000000E+00  0.00000E+00  9.000E+00
      23     2     1     2     0     0 -7.093369233E+00 -7.454355235E+00 -6.596457611E+01  1.135654908E+02  9.186899418E+01  0.00000E+00  9.000E+00
      13     1     3     3     0     0 -2.812797881E+01 -4.065222727E+01 -5.227712002E+01  7.194925444E+01  1.056583668E-01  0.00000E+00  9.000E+00
     -13     1     3     3     0     0  2.103460957E+01  3.319787204E+01 -1.368745610E+01  4.161623632E+01  1.056583668E-01  0.00000E+00  9.000E+00
      -1     1     1     2     0   511  7.093369233E+00  7.454355235E+00 -2.573505547E+01  2.771599501E+01  0.000000000E+00  0.00000E+00  9.000E+00
#pdf  -1  1 0.36388543E-02 0.13724185E-01 0.91868994E+02 0.85859432E+00 0.61542997E+00
#rwgt            1           5   745.92131785156676         54217137    18483553           0
</event>
<event>
      6  10013  3.31628E+03  3.16664E+00 -1.00000E+00  2.89788E-01
      -2    -1     0     0     0   501  0.000000000E+00  0.000000000E+00  2.692017121E+01  2.692017121E+01  0.000000000E+00  0.00000E+00  9.000E+00
       2    -1     0     0   511     0  0.000000000E+00  0.000000000E+00 -9.669204935E+01  9.669204935E+01  0.000000000E+00  0.00000E+00  9.000E+00
      23     2     1     2     0     0 -3.126740101E+00  5.011317929E-01 -5.071834065E+01  1.042973318E+02  9.107994130E+01  0.00000E+00  9.000E+00
      13     1     3     3     0     0 -2.455604741E+01 -4.350204399E+00 -7.046999448E+01  7.475262556E+01  1.056583668E-01  0.00000E+00  9.000E+00
     -13     1     3     3     0     0  2.142930731E+01  4.851336192E+00  1.975165383E+01  2.954470625E+01  1.056583668E-01  0.00000E+00  9.000E+00
      21     1     1     2   511   501  3.126740101E+00 -5.011317929E-01 -1.905353749E+01  1.931488876E+01  3.371747881E-07  0.00000E+00  9.000E+00
#pdf  -2  2 0.41189721E-02 0.11917082E-01 0.91079941E+02 0.79955536E+00 0.73667450E+00
#rwgt            1           4   646.82048616094585         54217137    18483617           0
</event>
<event>
      5  10013  3.31628E+03  8.94427E-01 -1.00000E+00  7.38691E-01
       2    -1     0     0   501     0  0.000000000E+00  0.000000000E+00  9.602329080E+02  9.602329080E+02  0.000000000E+00  0.00000E+00  9.000E+00
      -2    -1     0     0     0   501  0.000000000E+00  0.000000000E+00 -1.624374745E-01  1.624374745E-01  0.000000000E+00  0.00000E+00  9.000E+00
      23     2     1     2     0     0  0.000000000E+00  0.000000000E+00  9.600704706E+02  9.603953455E+02  2.497821519E+01  0.00000E+00  9.000E+00
      13     1     3     3     0     0 -1.327011141E+00  1.938479262E+00  9.516439598E+02  9.516468652E+02  1.056583668E-01  0.00000E+00  9.000E+00
     -13     1     3     3     0     0  1.327011141E+00 -1.938479262E+00  8.426510774E+00  8.748480322E+00  1.056583668E-01  0.00000E+00  9.000E+00
#pdf   2 -2 0.14772814E+00 0.24990381E-04 0.24978215E+02 0.59449118E+00 0.36189066E+01
#rwgt            1           7   3473.0697365597489         54217137    18483800           0
</event>
<event>
      6  10013  3.31628E+03  3.01787E+00 -1.00000E+00  2.95949E-01
       2    -1     0     0   511     0  0.000000000E+00  0.000000000E+00  1.577514965E+01  1.577514965E+01  0.000000000E+00  0.00000E+00  9.000E+00
      -2    -1     0     0     0   501  0.000000000E+00  0.000000000E+00 -1.781707456E+02  1.781707456E+02  0.000000000E+00  0.00000E+00  9.000E+00
      23     2     1     2     0     0  2.994305838E+00  3.763537388E-01 -1.667048290E+02  1.886850019E+02  8.833132201E+01  0.00000E+00  9.000E+00
      13     1     3     3     0     0 -2.410581405E+01  1.254907347E+01 -9.641130307E+00  2.883629784E+01  1.056583668E-01  0.00000E+00  9.000E+00
     -13     1     3     3     0     0  2.710011989E+01 -1.217271973E+01 -1.570636986E+02  1.598487041E+02  1.056583668E-01  0.00000E+00  9.000E+00
      21     1     1     2   511   501 -2.994305838E+00 -3.763537388E-01  4.309232993E+00  5.260893325E+00  0.000000000E+00  0.00000E+00  9.000E+00
#pdf   2 -2 0.16897966E-02 0.27321738E-01 0.88331322E+02 0.12657664E+01 0.28882188E+00
#rwgt            1           7   337.56172754522532         54217137    18484027           0
</event>
<event>
      6  10013  3.31628E+03  2.88513E+00 -1.00000E+00  3.01965E-01
      21    -1     0     0   511   501  0.000000000E+00  0.000000000E+00  1.233996597E+01  1.233996597E+01  0.000000000E+00  0.00000E+00  9.000E+00
       1    -1     0     0   501     0  0.000000000E+00  0.000000000E+00 -6.117408827E+02  6.117408827E+02  0.000000000E+00  0.00000E+00  9.000E+00
      23     2     1     2     0     0 -2.249399365E+00 -1.806704497E+00 -6.080999004E+02  6.149158993E+02  9.125650821E+01  0.00000E+00  9.000E+00
      13     1     3     3     0     0  3.259265908E+01 -3.108387408E+01 -2.630757408E+02  2.669032507E+02  1.056583668E-01  0.00000E+00  9.000E+00
     -13     1     3     3     0     0 -3.484205845E+01  2.927716959E+01 -3.450241596E+02  3.480126486E+02  1.056583668E-01  0.00000E+00  9.000E+00
       1     1     1     2   511     0  2.249399365E+00  1.806704497E+00  8.698983745E+00  9.164949364E+00  0.000000000E+00  0.00000E+00  9.000E+00
#pdf  -1  1 0.52404576E-03 0.94031156E-01 0.91256508E+02 0.18676607E+01 0.36988982E+00
#rwgt            1           5   910.14716939980565         54217137    18484130           0
</event>
<event>
      6  10013  3.31628E+03  1.33690E+01 -1.00000E+00  1.82176E-01
      -2    -1     0     0     0   501  0.000000000E+00  0.000000000E+00  5.763655400E+01  5.763655400E+01  0.000000000E+00  0.00000E+00  9.000E+00
       2    -1     0     0   511     0  0.000000000E+00  0.000000000E+00 -9.993743078E+00  9.993743078E+00  0.000000000E+00  0.00000E+00  9.000E+00
      23     2     1     2     0     0  4.887316627E+00 -1.244369576E+01  3.506013297E+01  4.927123358E+01  3.193290006E+01  0.00000E+00  9.000E+00
      13     1     3     3     0     0  1.310444541E+00 -1.975879206E+01  8.605364820E+00  2.159144728E+01  1.056583668E-01  0.00000E+00  9.000E+00
     -13     1     3     3     0     0  3.576872086E+00  7.315096293E+00  2.645476815E+01  2.767978630E+01  1.056583668E-01  0.00000E+00  9.000E+00
      21     1     1     2   511   501 -4.887316627E+00  1.244369576E+01  1.258267795E+01  1.835906349E+01  1.685873940E-07  0.00000E+00  9.000E+00
#pdf  -2  2 0.59837814E-02 0.10083570E-02 0.31932900E+02 0.59847294E+00 0.12537838E+01
#rwgt            1           4   752.70397809924873         54217137    18484288           0
</event>
<event>
      6  10013  3.31628E+03  1.49089E+00 -1.00000E+00  4.46434E-01
      -1    -1     0     0     0   511  0.000000000E+00  0.000000000E+00  3.828384868E-01  3.828384868E-01  0.000000000E+00  0.00000E+00  9.000E+00
       1    -1     0     0   501     0  0.000000000E+00  0.000000000E+00 -1.036035249E+03  1.036035249E+03  0.000000000E+00  0.00000E+00  9.000E+00
      23     2     1     2     0     0  2.127028738E-01  1.475635069E+00 -1.029825191E+03  1.030403170E+03  3.447530423E+01  0.00000E+00  9.000E+00
      13     1     3     3     0     0  1.314085874E+01 -1.204502856E+00 -1.830541510E+02  1.835291976E+02  1.056583668E-01  0.00000E+00  9.000E+00
     -13     1     3     3     0     0 -1.292815586E+01  2.680137925E+00 -8.467710399E+02  8.468739727E+02  1.056583668E-01  0.00000E+00  9.000E+00
      21     1     1     2   501   511 -2.127028738E-01 -1.475635069E+00 -5.827219090E+00  6.014916765E+00  2.230201594E-07  0.00000E+00  9.000E+00
#pdf  -1  1 0.44418431E-04 0.15833112E+00 0.34475304E+02 0.34039971E+01 0.30265392E+00
#rwgt            1           5   428.97217852376042         54217137    18484348           0
</event>
<event>
      6  10013  3.31628E+03  1.14119E+01 -1.00000E+00  1.89298E-01
      21    -1     0     0   501   511  0.000000000E+00  0.000000000E+00  3.865030156E+00  3.865030156E+00  0.000000000E+00  0.00000E+00  9.000E+00
      -5    -1     0     0     0   501  0.000000000E+00  0.000000000E+00 -9.639280526E+01  9.639280526E+01  0.000000000E+00  0.00000E+00  9.000E+00
      23     2     1     2     0     0 -8.744583605E+00 -7.332451255E+00 -7.260058941E+01  7.729427050E+01  2.394422866E+01  0.00000E+00  9.000E+00
      13     1     3     3     0     0 -8.636111586E-01 -9.861829043E+00 -6.591402999E+01  6.665337208E+01  1.056583668E-01  0.00000E+00  9.000E+00
     -13     1     3     3     0     0 -7.880972446E+00  2.529377789E+00 -6.686559419E+00  1.064089842E+01  1.056583668E-01  0.00000E+00  9.000E+00
      -5     1     1     2     0   511  8.744583605E+00  7.332451255E+00 -1.992718569E+01  2.296356491E+01  0.000000000E+00  0.00000E+00  9.000E+00
#pdf   5 -5 0.32592743E-03 0.10408642E-01 0.23944229E+02 0.79151687E+00 0.13860671E+00
#rwgt            1          10   35.292743451945789         54217137    18484493           0
</event>
<event>
      6  10013  3.31628E+03  1.04057E+01 -1.00000E+00  1.93725E-01
      21    -1     0     0   501   511  0.000000000E+00  0.000000000E+00  4.972450892E+02  4.972450892E+02  0.000000000E+00  0.00000E+00  9.000E+00
      -2    -1     0     0     0   501  0.000000000E+00  0.000000000E+00 -2.648230195E+01  2.648230195E+01  0.000000000E+00  0.00000E+00  9.000E+00
      23     2     1     2     0     0 -6.984462681E+00 -7.713325439E+00  5.256728401E+01  1.054024492E+02  9.076386310E+01  0.00000E+00  9.000E+00
      13     1     3     3     0     0  4.120771806E+01  1.701251862E+00  1.625316631E+01  4.432997704E+01  1.056583668E-01  0.00000E+00  9.000E+00
     -13     1     3     3     0     0 -4.819218074E+01 -9.414577301E+00  3.631411770E+01  6.107247218E+01  1.056583668E-01  0.00000E+00  9.000E+00
      -2     1     1     2     0   511  6.984462681E+00  7.713325439E+00  4.181955033E+02  4.183249420E+02  0.000000000E+00  0.00000E+00  9.000E+00
#pdf   2 -2 0.12072439E-01 0.40377945E-02 0.90763863E+02 0.73474136E+00 0.80644511E+00
#rwgt            1           7   552.33980539858692         54217137    18484654           0
</event>
<event>
      6  10013  3.31628E+03  3.90183E+01 -1.00000E+00  1.45481E-01
       2    -1     0     0   501     0  0.000000000E+00  0.000000000E+00  5.194039632E+02  5.194039632E+02  0.000000000E+00  0.00000E+00  9.000E+00
      21    -1     0     0   511   501  0.000000000E+00  0.000000000E+00 -1.246490293E+01  1.246490293E+01  0.000000000E+00  0.00000E+00  9.000E+00
      23     2     1     2     0     0  3.219249909E+01  2.204696924E+01  2.077634409E+02  2.301596070E+02  9.102401579E+01  0.00000E+00  9.000E+00
      13     1     3     3     0     0  2.622114422E+01  3.988549462E+01  4.275163250E+01  6.407896949E+01  1.056583668E-01  0.00000E+00  9.000E+00
     -13     1     3     3     0     0  5.971354877E+00 -1.783852538E+01  1.650118084E+02  1.660806375E+02  1.056583668E-01  0.00000E+00  9.000E+00
       2     1     1     2   511     0 -3.219249909E+01 -2.204696924E+01  2.991756194E+02  3.017092592E+02  0.000000000E+00  0.00000E+00  9.000E+00
#pdf   2 -2 0.30961693E-01 0.15834362E-02 0.91024016E+02 0.65120551E+00 0.12039003E+01
#rwgt            1           7   652.23408863835527         54217137    18484768           0
</event>
<event>
      6  10013  3.31628E+03  5.45894E+00 -1.00000E+00  2.31958E-01
      21    -1     0     0   511   501  0.000000000E+00  0.000000000E+00  3.329110671E+02  3.329110671E+02  0.000000000E+00  0.00000E+00  9.000E+00
       1    -1     0     0   501     0  0.000000000E+00  0.000000000E+00 -6.456470443E-01  6.456470443E-01  0.000000000E+00  0.00000E+00  9.000E+00
      23     2     1     2     0     0  9.642146748E-01 -5.373105624E+00  2.653581359E+02  2.664271034E+02  2.320907431E+01  0.00000E+00  9.000E+00
      13     1     3     3     0     0  7.381575331E+00  6.754319557E+00  9.917663001E+01  9.968010629E+01  1.056583668E-01  0.00000E+00  9.000E+00
     -13     1     3     3     0     0 -6.417360657E+00 -1.212742518E+01  1.661815059E+02  1.667469971E+02  1.056583668E-01  0.00000E+00  9.000E+00
       1     1     1     2   511     0 -9.642146748E-01  5.373105624E+00  6.690728414E+01  6.712961079E+01  0.000000000E+00  0.00000E+00  9.000E+00
#pdf  -1  1 0.39819919E-01 0.80043960E-04 0.23209074E+02 0.24682394E+00 0.24965332E+01
#rwgt            1           5   147.40380507697884         54217137    18484821           0
</event>
<event>
      6  10013  3.31628E+03  1.22308E+01 -1.00000E+00  1.86110E-01
       1    -1     0     0   501     0  0.000000000E+00  0.000000000E+00  1.691471865E+02  1.691471865E+02  0.000000000E+00  0.00000E+00  9.000E+00
      21    -1     0     0   511   501  0.000000000E+00  0.000000000E+00 -2.585120421E+01  2.585120421E+01  0.000000000E+00  0.00000E+00  9.000E+00
      23     2     1     2     0     0  6.045923332E+00  1.063204050E+01  1.532407710E+02  1.792347523E+02  9.215622088E+01  0.00000E+00  9.000E+00
      13     1     3     3     0     0  2.721760421E+01  4.393511971E+01  6.900942066E+01  8.621719102E+01  1.056583668E-01  0.00000E+00  9.000E+00
     -13     1     3     3     0     0 -2.117168088E+01 -3.330307921E+01  8.423135038E+01  9.301756128E+01  1.056583668E-01  0.00000E+00  9.000E+00
       1     1     1     2   511     0 -6.045923332E+00 -1.063204050E+01 -9.944788725E+00  1.576363844E+01  0.000000000E+00  0.00000E+00  9.000E+00
#pdf   1 -1 0.25352731E-01 0.19821562E-02 0.92156221E+02 0.52290860E+00 0.11090210E+01
#rwgt            1           6   627.32255745263592         54217137    18484895           0
</event>
<event>
      6  10013  3.31628E+03  1.68061E+01 -1.00000E+00  1.72810E-01
      -2    -1     0     0     0   501  0.000000000E+00  0.000000000E+00  8.693047190E-01  8.693047190E-01  0.000000000E+00  0.00000E+00  9.000E+00
       2    -1     0     0   511     0  0.000000000E+00  0.000000000E+00 -3.692285586E+03  3.692285586E+03  0.000000000E+00  0.00000E+00  9.000E+00
      23     2     1     2     0     0  8.037393234E+00  1.475962453E+01 -2.833518804E+03  2.835092813E+03  9.295162404E+01  0.00000E+00  9.000E+00
      13     1     3     3     0     0  3.829980849E+01 -2.318853694E+01 -1.140770662E+03  1.141648939E+03  1.056583668E-01  0.00000E+00  9.000E+00
     -13     1     3     3     0     0 -3.026241525E+01  3.794816147E+01 -1.692748141E+03  1.693443875E+03  1.056583668E-01  0.00000E+00  9.000E+00
      21     1     1     2   511   501 -8.037393234E+00 -1.475962453E+01 -8.578974774E+02  8.580620770E+02  1.078959322E-05  0.00000E+00  9.000E+00
#pdf  -2  2 0.11914587E-03 0.42908986E+00 0.92951624E+02 0.32172573E+01 0.17393785E+00
#rwgt            1           4   3443.8143113495489         54217137    18485009           0
</event>
<event>
      6  10013  3.31628E+03  5.57529E+00 -1.00000E+00  2.30458E-01
      -4    -1     0     0     0   511  0.000000000E+00  0.000000000E+00  9.996530873E+00  9.996530873E+00  0.000000000E+00  0.00000E+00  9.000E+00
       4    -1     0     0   501     0  0.000000000E+00  0.000000000E+00 -1.198353063E+03  1.198353063E+03  0.000000000E+00  0.00000E+00  9.000E+00
      23     2     1     2     0     0 -3.226984581E+00 -4.546475131E+00 -1.195719850E+03  1.199113668E+03  8.998079813E+01  0.00000E+00  9.000E+00
      13     1     3     3     0     0  1.352485043E+01 -2.618418667E+01 -1.413917280E+02  1.444304854E+02  1.056583668E-01  0.00000E+00  9.000E+00
     -13     1     3     3     0     0 -1.675183501E+01  2.163771154E+01 -1.054328122E+03  1.054683183E+03  1.056583668E-01  0.00000E+00  9.000E+00
      21     1     1     2   501   511  3.226984581E+00  4.546475131E+00  7.363318485E+00  9.235925764E+00  1.348699152E-06  0.00000E+00  9.000E+00
#pdf  -4  4 0.26056319E-03 0.18386536E+00 0.89980798E+02 0.20473083E+01 0.10236107E-01
#rwgt            1           2   19.875384798543582         54217137    18485072           0
</event>
<event>
      6  10013  3.31628E+03  3.58321E+00 -1.00000E+00  2.75145E-01
      21    -1     0     0   501   511  0.000000000E+00  0.000000000E+00  5.925765059E+01  5.925765059E+01  0.000000000E+00  0.00000E+00  9.000E+00
      -2    -1     0     0     0   501  0.000000000E+00  0.000000000E+00 -4.234101610E+00  4.234101610E+00  0.000000000E+00  0.00000E+00  9.000E+00
      23     2     1     2     0     0  3.470097552E+00 -8.931871000E-01  2.571075432E+01  3.396076354E+01  2.189637442E+01  0.00000E+00  9.000E+00
      13     1     3     3     0     0  8.845320118E-01 -9.325254995E-01 -3.966496069E+00  4.170881855E+00  1.056583668E-01  0.00000E+00  9.000E+00
     -13     1     3     3     0     0  2.585565541E+00  3.933839951E-02  2.967725039E+01  2.978988169E+01  1.056583668E-01  0.00000E+00  9.000E+00
      -2     1     1     2     0   511 -3.470097552E+00  8.931871000E-01  2.931279466E+01  2.953098866E+01  0.000000000E+00  0.00000E+00  9.000E+00
#pdf   2 -2 0.45298642E-02 0.62628575E-03 0.21896374E+02 0.78105235E+00 0.12746474E+01
#rwgt            1           7   705.84921569530161         54217137    18485183           0
</event>
<event>
      6  10013  3.31628E+03  5.29725E+00 -1.00000E+00  2.34131E-01
      21    -1     0     0   511   501  0.000000000E+00  0.000000000E+00  7.146676455E+01  7.146676455E+01  0.000000000E+00  0.00000E+00  9.000E+00
       2    -1     0     0   501     0  0.000000000E+00  0.000000000E+00 -2.848915249E+01  2.848915249E+01  0.000000000E+00  0.00000E+00  9.000E+00
      23     2     1     2     0     0 -4.497325416E+00 -2.799092284E+00 -2.455143104E+01  3.221942381E+01  2.018062564E+01  0.00000E+00  9.000E+00
      13     1     3     3     0     0  1.830320318E+00  3.907612365E+00  1.511503498E+00  4.573326292E+00  1.056583668E-01  0.00000E+00  9.000E+00
     -13     1     3     3     0     0 -6.327645734E+00 -6.706704649E+00 -2.606293454E+01  2.764609752E+01  1.056583668E-01  0.00000E+00  9.000E+00
       2     1     1     2   511     0  4.497325416E+00  2.799092284E+00  6.752904309E+01  6.773649323E+01  0.000000000E+00  0.00000E+00  9.000E+00
#pdf  -2  2 0.57051807E-03 0.42238953E-02 0.20180626E+02 0.12852652E+01 0.78279226E+00
#rwgt            1           4   915.47759659492715         54217137    18485270           0
</event>
<event>
      6  10013  3.31628E+03  4.20182E+00 -1.00000E+00  2.58429E-01
      -1    -1     0     0     0   511  0.000000000E+00  0.000000000E+00  1.312411240E+02  1.312411240E+02  0.000000000E+00  0.00000E+00  9.000E+00
       1    -1     0     0   501     0  0.000000000E+00  0.000000000E+00 -3.812337149E+01  3.812337149E+01  0.000000000E+00  0.00000E+00  9.000E+00
      23     2     1     2     0     0 -3.038534895E+00  2.902167048E+00  1.519206771E+01  9.132561019E+01  8.995506038E+01  0.00000E+00  9.000E+00
      13     1     3     3     0     0 -5.875100779E+00  4.280755073E+01 -9.596956703E+00  4.426190179E+01  1.056583668E-01  0.00000E+00  9.000E+00
     -13     1     3     3     0     0  2.836565884E+00 -3.990538368E+01  2.478902442E+01  4.706370840E+01  1.056583668E-01  0.00000E+00  9.000E+00
      21     1     1     2   501   511  3.038534895E+00 -2.902167048E+00  7.792568479E+01  7.803888530E+01  1.651812370E-06  0.00000E+00  9.000E+00
#pdf  -1  1 0.81847435E-02 0.58500479E-02 0.89955060E+02 0.59485220E+00 0.80093967E+00
#rwgt            1           5   660.89267934923964         54217137    18485381           0
</event>
<event>
      6  10013  3.31628E+03  1.15820E+01 -1.00000E+00  1.88607E-01
      21    -1     0     0   511   501  0.000000000E+00  0.000000000E+00  1.988914195E+01  1.988914195E+01  0.000000000E+00  0.00000E+00  9.000E+00
       2    -1     0     0   501     0  0.000000000E+00  0.000000000E+00 -2.521513212E+02  2.521513212E+02  0.000000000E+00  0.00000E+00  9.000E+00
      23     2     1     2     0     0  1.115963383E+01 -3.099356206E+00 -2.399410919E+02  2.581440918E+02  9.451190989E+01  0.00000E+00  9.000E+00
      13     1     3     3     0     0  3.443135242E+01  3.134927878E+00 -2.291529338E+02  2.317464650E+02  1.056583668E-01  0.00000E+00  9.000E+00
     -13     1     3     3     0     0 -2.327171859E+01 -6.234284085E+00 -1.078815817E+01  2.639762687E+01  1.056583668E-01  0.00000E+00  9.000E+00
       2     1     1     2   511     0 -1.115963383E+01  3.099356206E+00  7.678912678E+00  1.389637133E+01  0.000000000E+00  0.00000E+00  9.000E+00
#pdf  -2  2 0.13898338E-02 0.38029754E-01 0.94511910E+02 0.12768065E+01 0.64262113E+00
#rwgt            1           4   1174.6290003109905         54217137    18485542           0
</event>
<event>
      6  10013  3.31628E+03  1.03996E+01 -1.00000E+00  1.93753E-01
       2    -1     0     0   501     0  0.000000000E+00  0.000000000E+00  4.415979040E+03  4.415979040E+03  0.000000000E+00  0.00000E+00  9.000E+00
      21    -1     0     0   511   501  0.000000000E+00  0.000000000E+00 -1.043728557E+00  1.043728557E+00  0.000000000E+00  0.00000E+00  9.000E+00
      23     2     1     2     0     0  6.720984008E+00 -7.935952512E+00  4.367420709E+03  4.368383397E+03  9.111370698E+01  0.00000E+00  9.000E+00
      13     1     3     3     0     0  1.010716271E+01 -4.602392663E+01  3.175224646E+03  3.175574266E+03  1.056583668E-01  0.00000E+00  9.000E+00
     -13     1     3     3     0     0 -3.386178705E+00  3.808797411E+01  1.192196063E+03  1.192809131E+03  1.056583668E-01  0.00000E+00  9.000E+00
       2     1     1     2   511     0 -6.720984008E+00  7.935952512E+00  4.751460311E+01  4.863937167E+01  0.000000000E+00  0.00000E+00  9.000E+00
#pdf   2 -2 0.66765008E+00 0.73575263E-04 0.91113707E+02 0.22461986E-01 0.37927359E+01
#rwgt            1           7   421.40700744217690         54217137    18485662           0
</event>
<event>
      6  10013  3.31628E+03  8.65317E+00 -1.00000E+00  2.03248E-01
      21    -1     0     0   511   501  0.000000000E+00  0.000000000E+00  2.236778393E+01  2.236778393E+01  0.000000000E+00  0.00000E+00  9.000E+00
       2    -1     0     0   501     0  0.000000000E+00  0.000000000E+00 -2.376911358E+01  2.376911358E+01  0.000000000E+00  0.00000E+00  9.000E+00
      23     2     1     2     0     0  8.546989281E+00 -1.351413990E+00 -1.377430603E+01  3.103829194E+01  2.643419593E+01  0.00000E+00  9.000E+00
      13     1     3     3     0     0  3.489743359E-01  1.036037664E+01 -1.312760862E+01  1.672735661E+01  1.056583668E-01  0.00000E+00  9.000E+00
     -13     1     3     3     0     0  8.198014945E+00 -1.171179064E+01 -6.466974073E-01  1.431093533E+01  1.056583668E-01  0.00000E+00  9.000E+00
       2     1     1     2   511     0 -8.546989281E+00  1.351413990E+00  1.237297638E+01  1.509860557E+01  0.000000000E+00  0.00000E+00  9.000E+00
#pdf  -2  2 0.12620984E-02 0.32760632E-02 0.26434196E+02 0.10512439E+01 0.86778563E+00
#rwgt            1           4   714.03998862876449         54217137    18485734           0
</event>
<event>
      6  10013  3.31628E+03  6.42066E+00 -1.00000E+00  2.20921E-01
      21    -1     0     0   511   501  0.000000000E+00  0.000000000E+00  2.931070949E-01  2.931070949E-01  0.000000000E+00  0.00000E+00  9.000E+00
       2    -1     0     0   501     0  0.000000000E+00  0.000000000E+00 -1.225192054E+03  1.225192054E+03  0.000000000E+00  0.00000E+00  9.000E+00
      23     2     1     2     0     0 -6.420585649E+00  3.174989628E-02 -1.137116975E+03  1.137468688E+03  2.754590043E+01  0.00000E+00  9.000E+00
      13     1     3     3     0     0 -8.050102772E+00 -5.401329178E+00 -1.398743914E+02  1.402099677E+02  1.056583668E-01  0.00000E+00  9.000E+00
     -13     1     3     3     0     0  1.629517123E+00  5.433079075E+00 -9.972425838E+02  9.972587206E+02  1.056583668E-01  0.00000E+00  9.000E+00
       2     1     1     2   511     0  6.420585649E+00 -3.174989628E-02 -8.778197186E+01  8.801647296E+01  0.000000000E+00  0.00000E+00  9.000E+00
#pdf  -2  2 0.26348551E-04 0.17040036E+00 0.27545900E+02 0.36933516E+01 0.56972858E+00
#rwgt            1           4   3345.6650974758768         54217137    18485814           0
</event>
<event>
      6  10013  3.31628E+03  9.65118E+00 -1.00000E+00  1.97497E-01
      -1    -1     0     0     0   501  0.000000000E+00  0.000000000E+00  2.662952569E+02  2.662952569E+02  0.000000000E+00  0.00000E+00  9.000E+00
      21    -1     0     0   501   511  0.000000000E+00  0.000000000E+00 -1.046221212E+01  1.046221212E+01  0.000000000E+00  0.00000E+00  9.000E+00
      23     2     1     2     0     0  1.369315978E+00 -9.553547458E+00  2.455041658E+02  2.626213084E+02  9.276050304E+01  0.00000E+00  9.000E+00
      13     1     3     3     0     0  3.583856567E+00  3.275198113E+01  1.897987854E+02  1.926372924E+02  1.056583668E-01  0.00000E+00  9.000E+00
     -13     1     3     3     0     0 -2.214540589E+00 -4.230552859E+01  5.570538037E+01  6.998401607E+01  1.056583668E-01  0.00000E+00  9.000E+00
      -1     1     1     2     0   511 -1.369315978E+00  9.553547458E+00  1.032887903E+01  1.413616063E+01  0.000000000E+00  0.00000E+00  9.000E+00
#pdf  -1  1 0.38876718E-01 0.13096339E-02 0.92760503E+02 0.25474530E+00 0.13641216E+01
#rwgt            1           5   362.87732040391558         54217137    18485938           0
</event>
<event>
      6  10013  3.31628E+03  6.68788E+00 -1.00000E+00  2.18319E-01
      21    -1     0     0   511   501  0.000000000E+00  0.000000000E+00  8.337584148E-02  8.337584148E-02  0.000000000E+00  0.00000E+00  9.000E+00
       2    -1     0     0   501     0  0.000000000E+00  0.000000000E+00 -3.516594288E+03  3.516594288E+03  0.000000000E+00  0.00000E+00  9.000E+00
      23     2     1     2     0     0 -5.647585103E+00  3.582247070E+00 -3.196883542E+03  3.196980333E+03  2.396120986E+01  0.00000E+00  9.000E+00
      13     1     3     3     0     0  7.147933959E+00 -4.393935702E+00 -6.825157056E+02  6.825672855E+02  1.056583668E-01  0.00000E+00  9.000E+00
     -13     1     3     3     0     0 -1.279551906E+01  7.976182772E+00 -2.514367836E+03  2.514413047E+03  1.056583668E-01  0.00000E+00  9.000E+00
       2     1     1     2   511     0  5.647585103E+00 -3.582247070E+00 -3.196273699E+02  3.196973307E+02  0.000000000E+00  0.00000E+00  9.000E+00
#pdf  -2  2 0.71713475E-05 0.47372904E+00 0.23961210E+02 0.51191506E+01 0.16543679E+00
#rwgt            1           4   4793.9428645949947         54217137    18485993           0
</event>
<event>
      6  10013  3.31628E+03  3.39447E+01 -1.00000E+00  1.49371E-01
      21    -1     0     0   511   501  0.000000000E+00  0.000000000E+00  5.002363739E+02  5.002363739E+02  0.000000000E+00  0.00000E+00  9.000E+00
       5    -1     0     0   501     0  0.000000000E+00  0.000000000E+00 -9.452919937E+00  9.452919937E+00  0.000000000E+00  0.00000E+00  9.000E+00
      23     2     1     2     0     0 -3.115182563E+01  1.348353248E+01  4.204212691E+02  4.315670886E+02  9.134476769E+01  0.00000E+00  9.000E+00
      13     1     3     3     0     0 -5.796958235E+01  2.844150941E+01  2.391744861E+02  2.477374374E+02  1.056583668E-01  0.00000E+00  9.000E+00
     -13     1     3     3     0     0  2.681775672E+01 -1.495797693E+01  1.812467830E+02  1.838296513E+02  1.056583668E-01  0.00000E+00  9.000E+00
       5     1     1     2   511     0  3.115182563E+01 -1.348353248E+01  7.036218485E+01  7.812220520E+01  0.000000000E+00  0.00000E+00  9.000E+00
#pdf  -5  5 0.61432919E-01 0.80367322E-03 0.91344768E+02 0.36919554E-01 0.94790249E+00
#rwgt            1           1   51.344500261727063         54217137    18486055           0
</event>
<event>
      6  10013  3.31628E+03  4.48818E+01 -1.00000E+00  1.41775E-01
      21    -1     0     0   511   501  0.000000000E+00  0.000000000E+00  1.692514560E+01  1.692514560E+01  0.000000000E+00  0.00000E+00  9.000E+00
       2    -1     0     0   501     0  0.000000000E+00  0.000000000E+00 -4.095513055E+02  4.095513055E+02  0.000000000E+00  0.00000E+00  9.000E+00
      23     2     1     2     0     0 -2.244697114E+01  3.886526595E+01 -3.484541697E+02  3.635039164E+02  9.327600682E+01  0.00000E+00  9.000E+00
      13     1     3     3     0     0 -5.603862285E+00  6.879656448E+01 -2.415060229E+02  2.511763142E+02  1.056583668E-01  0.00000E+00  9.000E+00
     -13     1     3     3     0     0 -1.684310885E+01 -2.993129853E+01 -1.069481467E+02  1.123276021E+02  1.056583668E-01  0.00000E+00  9.000E+00
       2     1     1     2   511     0  2.244697114E+01 -3.886526595E+01 -4.417199025E+01  6.297253475E+01  0.000000000E+00  0.00000E+00  9.000E+00
#pdf  -2  2 0.10431913E-02 0.49350233E-01 0.93276007E+02 0.14299220E+01 0.63353337E+00
#rwgt            1           4   805.28282779333017         54217137    18486180           0
</event>
<event>
      6  10013  3.31628E+03  2.23890E+00 -1.00000E+00  3.41462E-01
       2    -1     0     0   501     0  0.000000000E+00  0.000000000E+00  2.915041854E+00  2.915041854E+00  0.000000000E+00  0.00000E+00  9.000E+00
      -2    -1     0     0     0   511  0.000000000E+00  0.000000000E+00 -5.435274631E+01  5.435274631E+01  0.000000000E+00  0.00000E+00  9.000E+00
      23     2     1     2     0     0 -2.103892763E+00  7.657097774E-01 -4.313768855E+01  4.867110623E+01  2.242774470E+01  0.00000E+00  9.000E+00
      13     1     3     3     0     0 -7.180671325E+00  6.472881594E+00 -3.858588511E+01  3.977866174E+01  1.056583668E-01  0.00000E+00  9.000E+00
     -13     1     3     3     0     0  5.076778562E+00 -5.707171816E+00 -4.551803442E+00  8.892444489E+00  1.056583668E-01  0.00000E+00  9.000E+00
      21     1     1     2   501   511  2.103892763E+00 -7.657097774E-01 -8.300015905E+00  8.596681932E+00  0.000000000E+00  0.00000E+00  9.000E+00
#pdf   2 -2 0.42354234E-03 0.70272866E-02 0.22427745E+02 0.14972471E+01 0.53301895E+00
#rwgt            1           7   790.45918399880929         54217137    18486231           0
</event>
<event>
      6  10013  3.31628E+03  3.92044E+00 -1.00000E+00  2.65433E-01
      -3    -1     0     0     0   501  0.000000000E+00  0.000000000E+00  2.340516856E+01  2.340516856E+01  0.000000000E+00  0.00000E+00  9.000E+00
       3    -1     0     0   511     0  0.000000000E+00  0.000000000E+00 -9.628193055E+01  9.628193055E+01  0.000000000E+00  0.00000E+00  9.000E+00
      23     2     1     2     0     0  2.709501887E+00  2.833445021E+00 -6.230947543E+01  1.084160141E+02  8.863515997E+01  0.00000E+00  9.000E+00
      13     1     3     3     0     0 -2.916054912E+00 -8.565222011E+00  2.166822004E+01  2.348168068E+01  1.056583668E-01  0.00000E+00  9.000E+00
     -13     1     3     3     0     0  5.625556799E+00  1.139866703E+01 -8.397769547E+01  8.493433346E+01  1.056583668E-01  0.00000E+00  9.000E+00
      21     1     1     2   511   501 -2.709501887E+00 -2.833445021E+00 -1.056728656E+01  1.127108497E+01  1.192092896E-07  0.00000E+00  9.000E+00
#pdf  -3  3 0.35431926E-02 0.13119902E-01 0.88635160E+02 0.81854794E+00 0.41765411E+00
#rwgt            1           3   315.93234670117818         54217137    18486345           0
</event>
<event>
      6  10013  3.31628E+03  2.27883E+00 -1.00000E+00  3.38352E-01
       1    -1     0     0   511     0  0.000000000E+00  0.000000000E+00  3.457490538E+02  3.457490538E+02  0.000000000E+00  0.00000E+00  9.000E+00
      -1    -1     0     0     0   501  0.000000000E+00  0.000000000E+00 -7.268848578E+00  7.268848578E+00  0.000000000E+00  0.00000E+00  9.000E+00
      23     2     1     2     0     0 -1.795796648E+00 -1.402923050E+00  2.891780393E+02  3.036630987E+02  9.263987283E+01  0.00000E+00  9.000E+00
      13     1     3     3     0     0 -1.333094985E+01  3.353432737E+01  2.374983952E+02  2.402244038E+02  1.056583668E-01  0.00000E+00  9.000E+00
     -13     1     3     3     0     0  1.153515320E+01 -3.493725042E+01  5.167964415E+01  6.343869489E+01  1.056583668E-01  0.00000E+00  9.000E+00
      21     1     1     2   511   501  1.795796648E+00  1.402923050E+00  4.930216593E+01  4.935480366E+01  6.743495762E-07  0.00000E+00  9.000E+00
#pdf   1 -1 0.45589373E-01 0.11138984E-02 0.92639873E+02 0.45460646E+00 0.13995484E+01
#rwgt            1           6   1073.2047257168601         54217137    18486499           0
</event>
<event>
      6  10013  3.31628E+03  4.07009E+00 -1.00000E+00  2.61599E-01
       2    -1     0     0   501     0  0.000000000E+00  0.000000000E+00  6.246088149E+00  6.246088149E+00  0.000000000E+00  0.00000E+00  9.000E+00
      -2    -1     0     0     0   511  0.000000000E+00  0.000000000E+00 -3.760655723E+02  3.760655723E+02  0.000000000E+00  0.00000E+00  9.000E+00
      23     2     1     2     0     0  2.961487980E+00  2.791989993E+00 -3.532764238E+02  3.652752739E+02  9.276437100E+01  0.00000E+00  9.000E+00
      13     1     3     3     0     0 -7.312028703E+00  4.260271779E+01 -2.566582168E+02  2.602727584E+02  1.056583668E-01  0.00000E+00  9.000E+00
     -13     1     3     3     0     0  1.027351668E+01 -3.981072780E+01 -9.661820694E+01  1.050025155E+02  1.056583668E-01  0.00000E+00  9.000E+00
      21     1     1     2   501   511 -2.961487980E+00 -2.791989993E+00 -1.654306034E+01  1.703638649E+01  0.000000000E+00  0.00000E+00  9.000E+00
#pdf   2 -2 0.92210135E-03 0.55220082E-01 0.92764371E+02 0.15716966E+01 0.16579343E+00
#rwgt            1           7   218.55269883143976         54217137    18486699           0
</event>
<event>
      6  10013  3.31628E+03  1.42315E+01 -1.00000E+00  1.79514E-01
      21    -1     0     0   501   511  0.000000000E+00  0.000000000E+00  3.097018612E+02  3.097018612E+02  0.000000000E+00  0.00000E+00  9.000E+00
      -1    -1     0     0     0   501  0.000000000E+00  0.000000000E+00 -1.869758727E+01  1.869758727E+01  0.000000000E+00  0.00000E+00  9.000E+00
      23     2     1     2     0     0 -6.355474651E+00 -1.273351726E+01  1.036912163E+02  1.405465377E+02  9.380259276E+01  0.00000E+00  9.000E+00
      13     1     3     3     0     0 -3.274041096E+01 -1.324598654E+01  1.877708382E+00  3.536845518E+01  1.056583668E-01  0.00000E+00  9.000E+00
     -13     1     3     3     0     0  2.638493631E+01  5.124692837E-01  1.018135079E+02  1.051780826E+02  1.056583668E-01  0.00000E+00  9.000E+00
      -1     1     1     2     0   511  6.355474651E+00  1.273351726E+01  1.873130576E+02  1.878529107E+02  0.000000000E+00  0.00000E+00  9.000E+00
#pdf   1 -1 0.18574956E-01 0.28029490E-02 0.93802593E+02 0.56664614E+00 0.96217824E+00
#rwgt            1           6   521.21641931386876         54217137    18486787           0
</event>
<event>
      6  10013  3.31628E+03  3.40131E+01 -1.00000E+00  1.49313E-01
       2    -1     0     0   501     0  0.000000000E+00  0.000000000E+00  1.154253405E+02  1.154253405E+02  0.000000000E+00  0.00000E+00  9.000E+00
      21    -1     0     0   511   501  0.000000000E+00  0.000000000E+00 -4.378361622E+01  4.378361622E+01  0.000000000E+00  0.00000E+00  9.000E+00
      23     2     1     2     0     0 -2.745102476E+01 -2.008321270E+01  8.522553252E+01  1.225836371E+02  8.128014826E+01  0.00000E+00  9.000E+00
      13     1     3     3     0     0 -4.994233017E+01 -1.870604892E+01  8.464231188E+01  1.000424147E+02  1.056583668E-01  0.00000E+00  9.000E+00
     -13     1     3     3     0     0  2.249130541E+01 -1.377163784E+00  5.832206390E-01  2.254122244E+01  1.056583668E-01  0.00000E+00  9.000E+00
       2     1     1     2   511     0  2.745102476E+01  2.008321270E+01 -1.358380821E+01  3.662531963E+01  0.000000000E+00  0.00000E+00  9.000E+00
#pdf   2 -2 0.14746232E-01 0.26509479E-02 0.81280148E+02 0.70570571E+00 0.95615362E+00
#rwgt            1           7   378.48270274306964         54217137    18486830           0
</event>
<event>
      6  10013  3.31628E+03  4.82603E+01 -1.00000E+00  1.39930E-01
      21    -1     0     0   511   501  0.000000000E+00  0.000000000E+00  1.195196869E+01  1.195196869E+01  0.000000000E+00  0.00000E+00  9.000E+00
       1    -1     0     0   501     0  0.000000000E+00  0.000000000E+00 -3.406862774E+02  3.406862774E+02  0.000000000E+00  0.00000E+00  9.000E+00
      23     2     1     2     0     0 -4.402324295E+00 -4.805906431E+01 -6.160963509E+01  8.118908809E+01  2.160709993E+01  0.00000E+00  9.000E+00
      13     1     3     3     0     0 -1.252361039E+01 -2.288288864E+01 -3.516513516E+01  4.378430431E+01  1.056583668E-01  0.00000E+00  9.000E+00
     -13     1     3     3     0     0  8.121286095E+00 -2.517617567E+01 -2.644449994E+01  3.740478378E+01  1.056583668E-01  0.00000E+00  9.000E+00
       1     1     1     2   511     0  4.402324295E+00  4.805906431E+01 -2.671246737E+02  2.714491580E+02  0.000000000E+00  0.00000E+00  9.000E+00
#pdf  -1  1 0.61544783E-03 0.44886425E-02 0.21607100E+02 0.12834168E+01 0.73242339E+00
#rwgt            1           5   197.74370861803925         54217137    18486914           0
</event>
<event>
      6  10013  3.31628E+03  1.06557E+01 -1.00000E+00  1.92565E-01
       3    -1     0     0   501     0  0.000000000E+00  0.000000000E+00  3.419324592E+01  3.419324592E+01  0.000000000E+00  0.00000E+00  9.000E+00
      21    -1     0     0   511   501  0.000000000E+00  0.000000000E+00 -2.490142717E+01  2.490142717E+01  0.000000000E+00  0.00000E+00  9.000E+00
      23     2     1     2     0     0 -5.380916762E+00  9.197306605E+00  2.819473258E+01  3.739525223E+01  2.213407396E+01  0.00000E+00  9.000E+00
      13     1     3     3     0     0 -8.759747805E+00  1.468528370E+01  2.476219096E+01  3.009265698E+01  1.056583668E-01  0.00000E+00  9.000E+00
     -13     1     3     3     0     0  3.378831043E+00 -5.487977094E+00  3.432541618E+00  7.302595255E+00  1.056583668E-01  0.00000E+00  9.000E+00
       3     1     1     2   511     0  5.380916762E+00 -9.197306605E+00 -1.890291383E+01  2.169942085E+01  0.000000000E+00  0.00000E+00  9.000E+00
#pdf   3 -3 0.45460121E-02 0.63768385E-03 0.22134074E+02 0.60006903E+00 0.12254903E+01
#rwgt            1           8   135.01745228741706         54217137    18486971           0
</event>
<event>
      6  10013  3.31628E+03  3.15822E+00 -1.00000E+00  2.90122E-01
      -2    -1     0     0     0   501  0.000000000E+00  0.000000000E+00  3.327868519E+01  3.327868519E+01  0.000000000E+00  0.00000E+00  9.000E+00
       2    -1     0     0   511     0  0.000000000E+00  0.000000000E+00 -8.046102543E+01  8.046102543E+01  0.000000000E+00  0.00000E+00  9.000E+00
      23     2     1     2     0     0  3.277293989E-01  3.141167565E+00 -3.684402722E+01  1.029297589E+02  9.605768363E+01  0.00000E+00  9.000E+00
      13     1     3     3     0     0 -1.156000286E+01  7.687229603E+00 -6.793259181E+01  6.933668119E+01  1.056583668E-01  0.00000E+00  9.000E+00
     -13     1     3     3     0     0  1.188773226E+01 -4.546062037E+00  3.108856458E+01  3.359307771E+01  1.056583668E-01  0.00000E+00  9.000E+00
      21     1     1     2   511   501 -3.277293989E-01 -3.141167565E+00 -1.033831302E+01  1.080995173E+01  1.685873940E-07  0.00000E+00  9.000E+00
#pdf  -2  2 0.50807724E-02 0.10746023E-01 0.96057684E+02 0.73043997E+00 0.75412875E+00
#rwgt            1           4   759.66499024787095         54217137    18487040           0
</event>
<event>
      6  10013  3.31628E+03  1.24145E+01 -1.00000E+00  1.85439E-01
       2    -1     0     0   501     0  0.000000000E+00  0.000000000E+00  2.001400717E+02  2.001400717E+02  0.000000000E+00  0.00000E+00  9.000E+00
      21    -1     0     0   511   501  0.000000000E+00  0.000000000E+00 -4.851348398E+01  4.851348398E+01  0.000000000E+00  0.00000E+00  9.000E+00
      23     2     1     2     0     0  1.224989670E+01 -2.014814125E+00  1.881373724E+02  2.100898830E+02  9.267129311E+01  0.00000E+00  9.000E+00
      13     1     3     3     0     0 -7.024550400E+00  2.666864678E+01  1.676755986E+02  1.699284513E+02  1.056583668E-01  0.00000E+00  9.000E+00
     -13     1     3     3     0     0  1.927444710E+01 -2.868346090E+01  2.046177383E+01  4.016143165E+01  1.056583668E-01  0.00000E+00  9.000E+00
       2     1     1     2   511     0 -1.224989670E+01  2.014814125E+00 -3.651078478E+01  3.856367267E+01  0.000000000E+00  0.00000E+00  9.000E+00
#pdf   2 -2 0.30361643E-01 0.16737033E-02 0.92671293E+02 0.65242548E+00 0.11798448E+01
#rwgt            1           7   965.29094346020383         54217137    18487258           0
</event>
<event>
      6  10013  3.31628E+03  2.54529E+01 -1.00000E+00  1.58132E-01
      21    -1     0     0   511   501  0.000000000E+00  0.000000000E+00  4.884012922E+00  4.884012922E+00  0.000000000E+00  0.00000E+00  9.000E+00
       1    -1     0     0   501     0  0.000000000E+00  0.000000000E+00 -1.451338364E+03  1.451338364E+03  0.000000000E+00  0.00000E+00  9.000E+00
      23     2     1     2     0     0  6.410349607E+00  2.463239912E+01 -1.399901021E+03  1.403165236E+03  9.220609082E+01  0.00000E+00  9.000E+00
      13     1     3     3     0     0  3.735702618E+01  1.610937828E+01 -1.201156856E+03  1.201845607E+03  1.056583668E-01  0.00000E+00  9.000E+00
     -13     1     3     3     0     0 -3.094667657E+01  8.523020845E+00 -1.987441645E+02  2.013196283E+02  1.056583668E-01  0.00000E+00  9.000E+00
       1     1     1     2   511     0 -6.410349607E+00 -2.463239912E+01 -4.655333043E+01  5.305714130E+01  0.000000000E+00  0.00000E+00  9.000E+00
#pdf  -1  1 0.24204101E-03 0.20784691E+00 0.92206091E+02 0.24927097E+01 0.22178731E+00
#rwgt            1           5   1119.2623556704445         54217137    18487353           0
</event>
<event>
      6  10013  3.31628E+03  1.60245E+01 -1.00000E+00  1.74676E-01
       3    -1     0     0   501     0  0.000000000E+00  0.000000000E+00  3.294918562E+01  3.294918562E+01  0.000000000E+00  0.00000E+00  9.000E+00
      21    -1     0     0   511   501  0.000000000E+00  0.000000000E+00 -9.485394856E+01  9.485394856E+01  0.000000000E+00  0.00000E+00  9.000E+00
      23     2     1     2     0     0 -1.311398834E+01 -9.209081690E+00 -3.323136709E+01  9.495579783E+01  8.749569079E+01  0.00000E+00  9.000E+00
      13     1     3     3     0     0 -2.695390163E+01  3.405626219E+01 -1.842166382E+01  4.717743813E+01  1.056583668E-01  0.00000E+00  9.000E+00
     -13     1     3     3     0     0  1.383991328E+01 -4.326534388E+01 -1.480970327E+01  4.777835970E+01  1.056583668E-01  0.00000E+00  9.000E+00
       3     1     1     2   511     0  1.311398834E+01  9.209081690E+00 -2.867339585E+01  3.284733635E+01  0.000000000E+00  0.00000E+00  9.000E+00
#pdf   3 -3 0.46703517E-02 0.96992251E-02 0.87495691E+02 0.71871572E+00 0.49567904E+00
#rwgt            1           8   378.69875798786637         54217137    18487436           0
</event>
<event>
      6  10013  3.31628E+03  7.71980E+00 -1.00000E+00  2.09648E-01
       4    -1     0     0   511     0  0.000000000E+00  0.000000000E+00  1.053492249E+01  1.053492249E+01  0.000000000E+00  0.00000E+00  9.000E+00
      -4    -1     0     0     0   501  0.000000000E+00  0.000000000E+00 -2.300808521E+02  2.300808521E+02  0.000000000E+00  0.00000E+00  9.000E+00
      23     2     1     2     0     0  5.903503146E+00 -4.974333328E+00 -2.046297297E+02  2.238202883E+02  9.034710742E+01  0.00000E+00  9.000E+00
      13     1     3     3     0     0  2.757719805E+01 -1.210178449E+01 -1.655399311E+01  3.436569353E+01  1.056583668E-01  0.00000E+00  9.000E+00
     -13     1     3     3     0     0 -2.167369490E+01  7.127451158E+00 -1.880757366E+02  1.894545947E+02  1.056583668E-01  0.00000E+00  9.000E+00
      21     1     1     2   511   501 -5.903503146E+00  4.974333328E+00 -1.491619991E+01  1.679548633E+01  2.384185791E-07  0.00000E+00  9.000E+00
#pdf   4 -4 0.14708373E-02 0.32838036E-01 0.90347107E+02 0.98837567E+00 0.13371131E+00
#rwgt            1           9   130.19292958638201         54217137    18487508           0
</event>
<event>
      6  10013  3.31628E+03  5.31012E+00 -1.00000E+00  2.33954E-01
       2    -1     0     0   501     0  0.000000000E+00  0.000000000E+00  1.965841991E+02  1.965841991E+02  0.000000000E+00  0.00000E+00  9.000E+00
      21    -1     0     0   511   501  0.000000000E+00  0.000000000E+00 -1.232106136E+01  1.232106136E+01  0.000000000E+00  0.00000E+00  9.000E+00
      23     2     1     2     0     0  5.197379661E+00 -1.088387816E+00  1.794420769E+02  2.017330940E+02  9.202491475E+01  0.00000E+00  9.000E+00
      13     1     3     3     0     0 -4.357852466E+00 -1.267452124E+01  1.851737127E+02  1.856581520E+02  1.056583668E-01  0.00000E+00  9.000E+00
     -13     1     3     3     0     0  9.555232127E+00  1.158613343E+01 -5.731635819E+00  1.607494204E+01  1.056583668E-01  0.00000E+00  9.000E+00
       2     1     1     2   511     0 -5.197379661E+00  1.088387816E+00  4.821060867E+00  7.172166427E+00  0.000000000E+00  0.00000E+00  9.000E+00
#pdf   2 -2 0.29272474E-01 0.17118461E-02 0.92024915E+02 0.65420121E+00 0.11677561E+01
#rwgt            1           7   1028.3138823744707         54217137    18487677           0
</event>
<event>
      6  10013  3.31628E+03  2.25647E+00 -1.00000E+00  3.40080E-01
      -3    -1     0     0     0   501  0.000000000E+00  0.000000000E+00  1.257060885E+01  1.257060885E+01  0.000000000E+00  0.00000E+00  9.000E+00
       3    -1     0     0   511     0  0.000000000E+00  0.000000000E+00 -1.589091490E+02  1.589091490E+02  0.000000000E+00  0.00000E+00  9.000E+00
      23     2     1     2     0     0  1.939366679E+00 -1.153470213E+00 -1.385339476E+02  1.633555162E+02  8.653483931E+01  0.00000E+00  9.000E+00
      13     1     3     3     0     0  1.112403751E+01  3.909467076E+01 -4.241841782E+01  5.874921979E+01  1.056583668E-01  0.00000E+00  9.000E+00
     -13     1     3     3     0     0 -9.184670829E+00 -4.024814097E+01 -9.611552975E+01  1.046062964E+02  1.056583668E-01  0.00000E+00  9.000E+00
      21     1     1     2   511   501 -1.939366679E+00  1.153470213E+00 -7.804592620E+00  8.124241664E+00  8.429369702E-08  0.00000E+00  9.000E+00
#pdf  -3  3 0.19087026E-02 0.23214376E-01 0.86534839E+02 0.10703888E+01 0.28793820E+00
#rwgt            1           3   331.61495519054250         54217137    18487766           0
</event>
<event>
      6  10013  3.31628E+03  3.94606E+00 -1.00000E+00  2.64758E-01
       2    -1     0     0   511     0  0.000000000E+00  0.000000000E+00  1.290295755E+01  1.290295755E+01  0.000000000E+00  0.00000E+00  9.000E+00
      -2    -1     0     0     0   501  0.000000000E+00  0.000000000E+00 -1.456895297E+01  1.456895297E+01  0.000000000E+00  0.00000E+00  9.000E+00
      23     2     1     2     0     0 -6.783360115E-01  3.887319506E+00 -2.003373067E+00  2.351145394E+01  2.309120114E+01  0.00000E+00  9.000E+00
      13     1     3     3     0     0  2.751587856E+00  9.501407557E+00  7.173430036E+00  1.221954350E+01  1.056583668E-01  0.00000E+00  9.000E+00
     -13     1     3     3     0     0 -3.429923868E+00 -5.614088051E+00 -9.176803103E+00  1.129191043E+01  1.056583668E-01  0.00000E+00  9.000E+00
      21     1     1     2   511   501  6.783360115E-01 -3.887319506E+00  3.373776514E-01  3.960456585E+00  7.271476573E-08  0.00000E+00  9.000E+00
#pdf   2 -2 0.16308262E-02 0.19346333E-02 0.23091201E+02 0.10179856E+01 0.87772900E+00
#rwgt            1           7   880.19811483492367         54217137    18487922           0
</event>
<event>
      6  10013  3.31628E+03  1.23244E+01 -1.00000E+00  1.85766E-01
      21    -1     0     0   511   501  0.000000000E+00  0.000000000E+00  2.372665945E+01  2.372665945E+01  0.000000000E+00  0.00000E+00  9.000E+00
       1    -1     0     0   501     0  0.000000000E+00  0.000000000E+00 -2.807687723E+02  2.807687723E+02  0.000000000E+00  0.00000E+00  9.000E+00
      23     2     1     2     0     0 -1.461426779E+00  1.223739962E+01 -2.707824074E+02  2.860377664E+02  9.133784485E+01  0.00000E+00  9.000E+00
      13     1     3     3     0     0  3.105599079E+00 -1.984513253E+01 -2.415843608E+02  2.424180038E+02  1.056583668E-01  0.00000E+00  9.000E+00
     -13     1     3     3     0     0 -4.567025858E+00  3.208253216E+01 -2.919804664E+01  4.361976256E+01  1.056583668E-01  0.00000E+00  9.000E+00
       1     1     1     2   511     0  1.461426779E+00 -1.223739962E+01  1.374029456E+01  1.845766541E+01  0.000000000E+00  0.00000E+00  9.000E+00
#pdf  -1  1 0.11629503E-02 0.42447652E-01 0.91337845E+02 0.13728388E+01 0.46238548E+00
#rwgt            1           5   1068.8779086912366         54217137    18487992           0
</event>
<event>
      6  10013  3.31628E+03  8.70015E+00 -1.00000E+00  2.02955E-01
      21    -1     0     0   501   511  0.000000000E+00  0.000000000E+00  5.020454716E+01  5.020454716E+01  0.000000000E+00  0.00000E+00  9.000E+00
      -1    -1     0     0     0   501  0.000000000E+00  0.000000000E+00 -1.109645084E+02  1.109645084E+02  0.000000000E+00  0.00000E+00  9.000E+00
      23     2     1     2     0     0 -8.324908982E+00  2.527544685E+00 -9.066381308E+01  1.300253091E+02  9.279526609E+01  0.00000E+00  9.000E+00
      13     1     3     3     0     0 -1.096437483E+01 -1.644313152E+01  1.361666629E+01  2.400039279E+01  1.056583668E-01  0.00000E+00  9.000E+00
     -13     1     3     3     0     0  2.639465851E+00  1.897067620E+01 -1.042804794E+02  1.060249163E+02  1.056583668E-01  0.00000E+00  9.000E+00
      -1     1     1     2     0   511  8.324908982E+00 -2.527544685E+00  2.990385182E+01  3.114374649E+01  0.000000000E+00  0.00000E+00  9.000E+00
#pdf   1 -1 0.30145869E-02 0.16901963E-01 0.92795266E+02 0.10097590E+01 0.41514540E+00
#rwgt            1           6   698.44081915667675         54217137    18488045           0
</event>
<event>
      6  10013  3.31628E+03  1.92183E+01 -1.00000E+00  1.67768E-01
       2    -1     0     0   501     0  0.000000000E+00  0.000000000E+00  3.539352686E+02  3.539352686E+02  0.000000000E+00  0.00000E+00  9.000E+00
      21    -1     0     0   511   501  0.000000000E+00  0.000000000E+00 -2.974130003E+02  2.974130003E+02  0.000000000E+00  0.00000E+00  9.000E+00
      23     2     1     2     0     0 -1.264736818E+00 -1.917665398E+01  3.474529012E+02  3.597835646E+02  9.138572753E+01  0.00000E+00  9.000E+00
      13     1     3     3     0     0  2.206156140E+01 -6.612850733E+00  3.227132033E+02  3.235340245E+02  1.056583668E-01  0.00000E+00  9.000E+00
     -13     1     3     3     0     0 -2.332629822E+01 -1.256380325E+01  2.473969794E+01  3.624954012E+01  1.056583668E-01  0.00000E+00  9.000E+00
       2     1     1     2   511     0  1.264736818E+00  1.917665398E+01 -2.909306330E+02  2.915647043E+02  0.000000000E+00  0.00000E+00  9.000E+00
#pdf   2 -2 0.53238293E-01 0.92820931E-03 0.91385728E+02 0.63115032E+00 0.14926278E+01
#rwgt            1           7   1117.3721084555923         54217137    18488145           0
</event>
<event>
      6  10013  3.31628E+03  2.44038E+00 -1.00000E+00  3.26854E-01
      -2    -1     0     0     0   511  0.000000000E+00  0.000000000E+00  1.791913656E-01  1.791913656E-01  0.000000000E+00  0.00000E+00  9.000E+00
       2    -1     0     0   501     0  0.000000000E+00  0.000000000E+00 -8.709593182E+02  8.709593182E+02  0.000000000E+00  0.00000E+00  9.000E+00
      23     2     1     2     0     0 -2.390996932E+00  4.884753340E-01 -8.222948736E+02  8.225918798E+02  2.196784445E+01  0.00000E+00  9.000E+00
      13     1     3     3     0     0 -1.197948214E+01 -1.082691319E+00 -3.802082885E+02  3.803985200E+02  1.056583668E-01  0.00000E+00  9.000E+00
     -13     1     3     3     0     0  9.588485209E+00  1.571166653E+00 -4.420865850E+02  4.421933598E+02  1.056583668E-01  0.00000E+00  9.000E+00
      21     1     1     2   501   511  2.390996932E+00 -4.884753340E-01 -4.848525328E+01  4.854662975E+01  0.000000000E+00  0.00000E+00  9.000E+00
#pdf  -2  2 0.22706955E-04 0.12575617E+00 0.21967844E+02 0.35438539E+01 0.61384146E+00
#rwgt            1           4   2720.9500655031552         54217137    18488227           0
</event>
<event>
      6  10013  3.31628E+03  3.48089E+01 -1.00000E+00  1.48653E-01
       2    -1     0     0   511     0  0.000000000E+00  0.000000000E+00  9.850342429E+01  9.850342429E+01  0.000000000E+00  0.00000E+00  9.000E+00
      -2    -1     0     0     0   501  0.000000000E+00  0.000000000E+00 -1.064784232E+02  1.064784232E+02  0.000000000E+00  0.00000E+00  9.000E+00
      23     2     1     2     0     0  3.465371642E+01 -3.283079925E+00 -7.953588659E+01  1.254040910E+02  9.049071837E+01  0.00000E+00  9.000E+00
      13     1     3     3     0     0  3.551853782E+01 -2.123255718E+01  2.467563066E+00  4.145465046E+01  1.056583668E-01  0.00000E+00  9.000E+00
     -13     1     3     3     0     0 -8.648214025E-01  1.794947726E+01 -8.200344966E+01  8.394944055E+01  1.056583668E-01  0.00000E+00  9.000E+00
      21     1     1     2   511   501 -3.465371642E+01  3.283079925E+00  7.156088770E+01  7.957775646E+01  1.651812370E-06  0.00000E+00  9.000E+00
#pdf   2 -2 0.32930871E-02 0.14713573E-01 0.90490718E+02 0.10225832E+01 0.42346368E+00
#rwgt            1           7   483.17939379566303         54217137    18488426           0
</event>
<event>
      6  10013  3.31628E+03  3.12071E+00 -1.00000E+00  2.91630E-01
      -1    -1     0     0     0   511  0.000000000E+00  0.000000000E+00  2.350075906E+01  2.350075906E+01  0.000000000E+00  0.00000E+00  9.000E+00
       1    -1     0     0   501     0  0.000000000E+00  0.000000000E+00 -8.908223692E+02  8.908223692E+02  0.000000000E+00  0.00000E+00  9.000E+00
      23     2     1     2     0     0  4.033272990E-01  3.094533274E+00 -8.662440212E+02  9.110216124E+02  2.820849787E+02  0.00000E+00  9.000E+00
      13     1     3     3     0     0  1.062310058E+02  7.999665733E+00 -7.334468635E+02  7.411432614E+02  1.056583668E-01  0.00000E+00  9.000E+00
     -13     1     3     3     0     0 -1.058276785E+02 -4.905132459E+00 -1.327971577E+02  1.698783509E+02  1.056583668E-01  0.00000E+00  9.000E+00
      21     1     1     2   501   511 -4.033272990E-01 -3.094533274E+00 -1.077588950E+00  3.301515870E+00  5.771194914E-08  0.00000E+00  9.000E+00
#pdf  -1  1 0.34442193E-02 0.13670438E+00 0.28208498E+03 0.98409284E+00 0.29140901E+00
#rwgt            1           5   972.62172550125490         54217137    18488463           0
</event>
<event>
      6  10013  3.31628E+03  4.39781E+00 -1.00000E+00  2.54031E-01
      21    -1     0     0   511   501  0.000000000E+00  0.000000000E+00  1.035062443E+01  1.035062443E+01  0.000000000E+00  0.00000E+00  9.000E+00
       2    -1     0     0   501     0  0.000000000E+00  0.000000000E+00 -2.120071804E+02  2.120071804E+02  0.000000000E+00  0.00000E+00  9.000E+00
      23     2     1     2     0     0  3.925476766E+00 -1.982756701E+00 -1.956709368E+02  2.149302663E+02  8.881758365E+01  0.00000E+00  9.000E+00
      13     1     3     3     0     0 -3.732113430E+01  1.118729248E+01 -1.341970780E+02  1.397386471E+02  1.056583668E-01  0.00000E+00  9.000E+00
     -13     1     3     3     0     0  4.124661107E+01 -1.317004918E+01 -6.147385880E+01  7.519161921E+01  1.056583668E-01  0.00000E+00  9.000E+00
       2     1     1     2   511     0 -3.925476766E+00  1.982756701E+00 -5.985619134E+00  7.427538515E+00  0.000000000E+00  0.00000E+00  9.000E+00
#pdf  -2  2 0.14796741E-02 0.31546060E-01 0.88817584E+02 0.12331776E+01 0.64997327E+00
#rwgt            1           4   870.68141488914614         54217137    18488672           0
</event>
<event>
      6  10013  3.31628E+03  3.77127E+00 -1.00000E+00  2.69531E-01
      21    -1     0     0   511   501  0.000000000E+00  0.000000000E+00  6.011382551E+00  6.011382551E+00  0.000000000E+00  0.00000E+00  9.000E+00
       4    -1     0     0   501     0  0.000000000E+00  0.000000000E+00 -2.750789832E+01  2.750789832E+01  0.000000000E+00  0.00000E+00  9.000E+00
      23     2     1     2     0     0  3.485451049E+00 -1.440184741E+00 -1.817104267E+01  2.849123230E+01  2.161807173E+01  0.00000E+00  9.000E+00
      13     1     3     3     0     0  8.953303373E+00 -1.218084846E+00 -2.060627010E+01  2.250055340E+01  1.056583668E-01  0.00000E+00  9.000E+00
     -13     1     3     3     0     0 -5.467852324E+00 -2.220998949E-01  2.435227431E+00  5.990678904E+00  1.056583668E-01  0.00000E+00  9.000E+00
       4     1     1     2   511     0 -3.485451049E+00  1.440184741E+00 -3.325473099E+00  5.028048571E+00  0.000000000E+00  0.00000E+00  9.000E+00
#pdf  -4  4 0.78204994E-03 0.35360037E-02 0.21618072E+02 0.88547213E+00 0.47515682E+00
#rwgt            1           2   255.64799074245101         54217137    18488908           0
</event>
<event>
      6  10013  3.31628E+03  4.88807E+01 -1.00000E+00  1.39610E-01
       1    -1     0     0   511     0  0.000000000E+00  0.000000000E+00  7.655276528E+01  7.655276528E+01  0.000000000E+00  0.00000E+00  9.000E+00
      -1    -1     0     0     0   501  0.000000000E+00  0.000000000E+00 -4.998799924E+02  4.998799924E+02  0.000000000E+00  0.00000E+00  9.000E+00
      23     2     1     2     0     0  4.878794310E+01 -3.009978906E+00 -4.859094882E+02  4.970232951E+02  9.238399090E+01  0.00000E+00  9.000E+00
      13     1     3     3     0     0 -2.617172092E+01  1.713208848E+00 -7.900088316E+01  8.324088397E+01  1.056583668E-01  0.00000E+00  9.000E+00
     -13     1     3     3     0     0  7.495966402E+01 -4.723187754E+00 -4.069086050E+02  4.137824111E+02  1.056583668E-01  0.00000E+00  9.000E+00
      21     1     1     2   511   501 -4.878794310E+01  3.009978906E+00  6.258226101E+01  7.940946265E+01  9.536743164E-07  0.00000E+00  9.000E+00
#pdf   1 -1 0.75565382E-03 0.66831907E-01 0.92383991E+02 0.16661391E+01 0.17028368E+00
#rwgt            1           6   520.36819754113765         54217137    18489001           0
</event>
<event>
      6  10013  3.31628E+03  2.22512E+00 -1.00000E+00  3.42563E-01
       2    -1     0     0   511     0  0.000000000E+00  0.000000000E+00  1.043968052E+03  1.043968052E+03  0.000000000E+00  0.00000E+00  9.000E+00
      -2    -1     0     0     0   501  0.000000000E+00  0.000000000E+00 -2.334994062E+00  2.334994062E+00  0.000000000E+00  0.00000E+00  9.000E+00
      23     2     1     2     0     0  9.645303373E-01  2.005201005E+00  9.443671591E+02  9.490116989E+02  9.374925264E+01  0.00000E+00  9.000E+00
      13     1     3     3     0     0  4.296846693E+01  7.967927107E+00  6.657743607E+02  6.672070799E+02  1.056583668E-01  0.00000E+00  9.000E+00
     -13     1     3     3     0     0 -4.200393660E+01 -5.962726101E+00  2.785927984E+02  2.818046190E+02  1.056583668E-01  0.00000E+00  9.000E+00
      21     1     1     2   511   501 -9.645303373E-01 -2.005201005E+00  9.726589847E+01  9.729134676E+01  1.348699152E-06  0.00000E+00  9.000E+00
#pdf   2 -2 0.14560352E+00 0.35717170E-03 0.93749253E+02 0.55857821E+00 0.21618594E+01
#rwgt            1           7   1818.5608056651752         54217137    18489065           0
</event>
<event>
      6  10013  3.31628E+03  7.37991E+00 -1.00000E+00  2.12291E-01
       1    -1     0     0   501     0  0.000000000E+00  0.000000000E+00  4.779088872E+01  4.779088872E+01  0.000000000E+00  0.00000E+00  9.000E+00
      -1    -1     0     0     0   511  0.000000000E+00  0.000000000E+00 -5.453932163E+01  5.453932163E+01  0.000000000E+00  0.00000E+00  9.000E+00
      23     2     1     2     0     0 -4.652258762E+00  5.728835285E+00 -1.518038968E+00  9.328476475E+01  9.297999692E+01  0.00000E+00  9.000E+00
      13     1     3     3     0     0  2.073997742E+01  2.398121385E+01 -3.516604535E+01  4.734878235E+01  1.056583668E-01  0.00000E+00  9.000E+00
     -13     1     3     3     0     0 -2.539223618E+01 -1.825237856E+01  3.364800639E+01  4.593598240E+01  1.056583668E-01  0.00000E+00  9.000E+00
      21     1     1     2   501   511  4.652258762E+00 -5.728835285E+00 -5.230393943E+00  9.045445601E+00  1.332800375E-07  0.00000E+00  9.000E+00
#pdf   1 -1 0.70368485E-02 0.72696608E-02 0.92979997E+02 0.75587050E+00 0.63058190E+00
#rwgt            1           6   431.73169043810555         54217137    18489273           0
</event>
<event>
      6  10013  3.31628E+03  4.74501E+00 -1.00000E+00  2.47040E-01
      -2    -1     0     0     0   501  0.000000000E+00  0.000000000E+00  2.298935528E+01  2.298935528E+01  0.000000000E+00  0.00000E+00  9.000E+00
       2    -1     0     0   511     0  0.000000000E+00  0.000000000E+00 -1.446619912E+02  1.446619912E+02  0.000000000E+00  0.00000E+00  9.000E+00
      23     2     1     2     0     0  2.311141516E+00 -4.144125559E+00 -6.781988617E+01  1.135899572E+02  9.099794652E+01  0.00000E+00  9.000E+00
      13     1     3     3     0     0  3.575788146E+01  1.232352223E+01 -1.914151307E+00  3.787044264E+01  1.056583668E-01  0.00000E+00  9.000E+00
     -13     1     3     3     0     0 -3.344673995E+01 -1.646764779E+01 -6.590573486E+01  7.571951458E+01  1.056583668E-01  0.00000E+00  9.000E+00
      21     1     1     2   511   501 -2.311141516E+00  4.144125559E+00 -5.385274977E+01  5.406138927E+01  6.743495762E-07  0.00000E+00  9.000E+00
#pdf  -2  2 0.35159979E-02 0.13935671E-01 0.90997947E+02 0.85802415E+00 0.71634851E+00
#rwgt            1           4   534.73282187642997         54217137    18489350           0
</event>
<event>
      6  10013  3.31628E+03  1.34855E+01 -1.00000E+00  1.81802E-01
       1    -1     0     0   501     0  0.000000000E+00  0.000000000E+00  1.416938336E+02  1.416938336E+02  0.000000000E+00  0.00000E+00  9.000E+00
      21    -1     0     0   511   501  0.000000000E+00  0.000000000E+00 -2.120810786E+02  2.120810786E+02  0.000000000E+00  0.00000E+00  9.000E+00
      23     2     1     2     0     0 -1.340686683E+01  1.453849776E+00  1.250805177E+02  1.578425157E+02  9.532715294E+01  0.00000E+00  9.000E+00
      13     1     3     3     0     0 -2.935519704E+01 -4.122040063E+01  6.965324130E+01  8.609549470E+01  1.056583668E-01  0.00000E+00  9.000E+00
     -13     1     3     3     0     0  1.594833021E+01  4.267425041E+01  5.542727639E+01  7.174702096E+01  1.056583668E-01  0.00000E+00  9.000E+00
       1     1     1     2   511     0  1.340686683E+01 -1.453849776E+00 -1.954677627E+02  1.959323965E+02  0.000000000E+00  0.00000E+00  9.000E+00
#pdf   1 -1 0.21548757E-01 0.24953088E-02 0.95327153E+02 0.54532990E+00 0.10125099E+01
#rwgt            1           6   742.27807201702308         54217137    18489538           0
</event>
<event>
      6  10013  3.31628E+03  8.41735E+00 -1.00000E+00  2.04760E-01
      21    -1     0     0   511   501  0.000000000E+00  0.000000000E+00  1.645359607E+01  1.645359607E+01  0.000000000E+00  0.00000E+00  9.000E+00
       1    -1     0     0   501     0  0.000000000E+00  0.000000000E+00 -1.449067252E+02  1.449067252E+02  0.000000000E+00  0.00000E+00  9.000E+00
      23     2     1     2     0     0  8.187423352E+00  1.953957653E+00 -1.160779069E+02  1.463937593E+02  8.880428166E+01  0.00000E+00  9.000E+00
      13     1     3     3     0     0 -3.163894755E+01 -1.868740583E+01 -8.265048159E+01  9.045084527E+01  1.056583668E-01  0.00000E+00  9.000E+00
     -13     1     3     3     0     0  3.982637090E+01  2.064136348E+01 -3.342742536E+01  5.594291408E+01  1.056583668E-01  0.00000E+00  9.000E+00
       1     1     1     2   511     0 -8.187423352E+00 -1.953957653E+00 -1.237522218E+01  1.496656192E+01  0.000000000E+00  0.00000E+00  9.000E+00
#pdf  -1  1 0.23215831E-02 0.20100038E-01 0.88804282E+02 0.10338981E+01 0.55390728E+00
#rwgt            1           5   772.23728160581982         54217137    18489583           0
</event>
<event>
      6  10013  3.31628E+03  1.16988E+01 -1.00000E+00  1.88143E-01
       2    -1     0     0   501     0  0.000000000E+00  0.000000000E+00  7.114739447E+01  7.114739447E+01  0.000000000E+00  0.00000E+00  9.000E+00
      21    -1     0     0   511   501  0.000000000E+00  0.000000000E+00 -8.100300745E+00  8.100300745E+00  0.000000000E+00  0.00000E+00  9.000E+00
      23     2     1     2     0     0  1.021137368E+01 -5.708698214E+00  6.016531194E+01  6.719920760E+01  2.755008808E+01  0.00000E+00  9.000E+00
      13     1     3     3     0     0  7.251677916E+00  1.059934973E+01  3.254344047E+01  3.498599332E+01  1.056583668E-01  0.00000E+00  9.000E+00
     -13     1     3     3     0     0  2.959695762E+00 -1.630804795E+01  2.762187147E+01  3.221321428E+01  1.056583668E-01  0.00000E+00  9.000E+00
       2     1     1     2   511     0 -1.021137368E+01  5.708698214E+00  2.881781786E+00  1.204848762E+01  0.000000000E+00  0.00000E+00  9.000E+00
#pdf   2 -2 0.90179103E-02 0.49802755E-03 0.27550088E+02 0.70498019E+00 0.14603125E+01
#rwgt            1           7   1240.8241623521519         54217137    18489676           0
</event>
<event>
      6  10013  3.31628E+03  6.28957E+00 -1.00000E+00  2.22263E-01
      -1    -1     0     0     0   511  0.000000000E+00  0.000000000E+00  1.882538694E+01  1.882538694E+01  0.000000000E+00  0.00000E+00  9.000E+00
       1    -1     0     0   501     0  0.000000000E+00  0.000000000E+00 -1.273326634E+02  1.273326634E+02  0.000000000E+00  0.00000E+00  9.000E+00
      23     2     1     2     0     0 -4.768361070E+00 -4.101392989E+00 -1.018742764E+02  1.370171870E+02  9.140997026E+01  0.00000E+00  9.000E+00
      13     1     3     3     0     0 -4.446424918E+01 -1.816635203E+01 -6.641104685E+01  8.196050335E+01  1.056583668E-01  0.00000E+00  9.000E+00
     -13     1     3     3     0     0  3.969588811E+01  1.406495904E+01 -3.546322952E+01  5.505668368E+01  1.056583668E-01  0.00000E+00  9.000E+00
      21     1     1     2   501   511  4.768361070E+00  4.101392989E+00 -6.633000038E+00  9.140863266E+00  1.884864366E-07  0.00000E+00  9.000E+00
#pdf  -1  1 0.26969243E-02 0.18332921E-01 0.91409970E+02 0.97481471E+00 0.56807191E+00
#rwgt            1           5   671.81925036823759         54217137    18489703           0
</event>
<event>
      6  10013  3.31628E+03  3.23897E+00 -1.00000E+00  2.86990E-01
      -2    -1     0     0     0   511  0.000000000E+00  0.000000000E+00  1.123181202E+00  1.123181202E+00  0.000000000E+00  0.00000E+00  9.000E+00
       2    -1     0     0   501     0  0.000000000E+00  0.000000000E+00 -2.864690473E+03  2.864690473E+03  0.000000000E+00  0.00000E+00  9.000E+00
      23     2     1     2     0     0  1.579101523E+00 -2.827965962E+00 -2.857217929E+03  2.858685867E+03  9.154287117E+01  0.00000E+00  9.000E+00
      13     1     3     3     0     0 -4.408531276E+01 -8.824876240E+00 -1.250551206E+03  1.251359151E+03  1.056583668E-01  0.00000E+00  9.000E+00
     -13     1     3     3     0     0  4.566441428E+01  5.996910278E+00 -1.606666723E+03  1.607326716E+03  1.056583668E-01  0.00000E+00  9.000E+00
      21     1     1     2   501   511 -1.579101523E+00  2.827965962E+00 -6.349362944E+00  7.127788078E+00  1.049448065E-06  0.00000E+00  9.000E+00
#pdf  -2  2 0.11284764E-03 0.43940995E+00 0.91542871E+02 0.32682640E+01 0.16328255E+00
#rwgt            1           4   5320.5150701241664         54217137    18489754           0
</event>
<event>
      6  10013  3.31628E+03  9.49845E+00 -1.00000E+00  1.98316E-01
       1    -1     0     0   501     0  0.000000000E+00  0.000000000E+00  2.090724928E+02  2.090724928E+02  0.000000000E+00  0.00000E+00  9.000E+00
      -1    -1     0     0     0   511  0.000000000E+00  0.000000000E+00 -1.377644680E+01  1.377644680E+01  0.000000000E+00  0.00000E+00  9.000E+00
      23     2     1     2     0     0  9.267462711E+00  2.081983342E+00  1.927535103E+02  2.130160861E+02  9.017603174E+01  0.00000E+00  9.000E+00
      13     1     3     3     0     0 -3.071018907E+01 -9.305420271E+00  2.641658895E+01  4.156385322E+01  1.056583668E-01  0.00000E+00  9.000E+00
     -13     1     3     3     0     0  3.997765178E+01  1.138740361E+01  1.663369214E+02  1.714522329E+02  1.056583668E-01  0.00000E+00  9.000E+00
      21     1     1     2   501   511 -9.267462711E+00 -2.081983342E+00  2.542535730E+00  9.832853486E+00  2.475566823E-07  0.00000E+00  9.000E+00
#pdf   1 -1 0.31041321E-01 0.15500844E-02 0.90176032E+02 0.49769471E+00 0.12218395E+01
#rwgt            1           6   740.15769085655245         54217137    18489961           0
</event>
<event>
      6  10013  3.31628E+03  1.62394E+01 -1.00000E+00  1.74150E-01
      21    -1     0     0   501   511  0.000000000E+00  0.000000000E+00  5.888768785E+00  5.888768785E+00  0.000000000E+00  0.00000E+00  9.000E+00
      -3    -1     0     0     0   501  0.000000000E+00  0.000000000E+00 -7.521944655E+02  7.521944655E+02  0.000000000E+00  0.00000E+00  9.000E+00
      23     2     1     2     0     0  6.536214025E+00  1.486588480E+01 -3.725199200E+02  3.839448595E+02  9.153604591E+01  0.00000E+00  9.000E+00
      13     1     3     3     0     0  2.856508507E+01  4.621380945E+01 -2.025165487E+02  2.096774759E+02  1.056583668E-01  0.00000E+00  9.000E+00
     -13     1     3     3     0     0 -2.202887104E+01 -3.134792464E+01 -1.700033713E+02  1.742673835E+02  1.056583668E-01  0.00000E+00  9.000E+00
      -3     1     1     2     0   511 -6.536214025E+00 -1.486588480E+01 -3.737857767E+02  3.741383748E+02  0.000000000E+00  0.00000E+00  9.000E+00
#pdf   3 -3 0.86532927E-03 0.57294931E-01 0.91536046E+02 0.14934383E+01 0.13017885E+00
#rwgt            1           8   305.31196297236647         54217137    18490051           0
</event>
<event>
      6  10013  3.31628E+03  1.84433E+01 -1.00000E+00  1.69283E-01
      21    -1     0     0   511   501  0.000000000E+00  0.000000000E+00  3.283429464E+00  3.283429464E+00  0.000000000E+00  0.00000E+00  9.000E+00
       2    -1     0     0   501     0  0.000000000E+00  0.000000000E+00 -9.779242202E+02  9.779242202E+02  0.000000000E+00  0.00000E+00  9.000E+00
      23     2     1     2     0     0 -1.728507013E+01  6.432825761E+00 -8.577520530E+02  8.628728200E+02  9.203675468E+01  0.00000E+00  9.000E+00
      13     1     3     3     0     0 -1.105852269E+01 -3.689501376E+01 -2.005865070E+02  2.042510488E+02  1.056583668E-01  0.00000E+00  9.000E+00
     -13     1     3     3     0     0 -6.226547439E+00  4.332783952E+01 -6.571655460E+02  6.586217712E+02  1.056583668E-01  0.00000E+00  9.000E+00
       2     1     1     2   511     0  1.728507013E+01 -6.432825761E+00 -1.168887377E+02  1.183348297E+02  0.000000000E+00  0.00000E+00  9.000E+00
#pdf  -2  2 0.38622675E-03 0.12977575E+00 0.92036755E+02 0.20920994E+01 0.57580747E+00
#rwgt            1           4   1539.9162514634893         54217137    18490092           0
</event>
<event>
      6  10013  3.31628E+03  2.27556E+01 -1.00000E+00  1.61834E-01
       4    -1     0     0   501     0  0.000000000E+00  0.000000000E+00  5.621868793E+02  5.621868793E+02  0.000000000E+00  0.00000E+00  9.000E+00
      21    -1     0     0   511   501  0.000000000E+00  0.000000000E+00 -3.023712076E+00  3.023712076E+00  0.000000000E+00  0.00000E+00  9.000E+00
      23     2     1     2     0     0  5.715726258E+00  2.202603053E+01  4.794565804E+02  4.823193643E+02  4.728150925E+01  0.00000E+00  9.000E+00
      13     1     3     3     0     0 -8.471087015E+00  1.366382084E+01  4.945550312E+01  5.200305056E+01  1.056583668E-01  0.00000E+00  9.000E+00
     -13     1     3     3     0     0  1.418681327E+01  8.362209688E+00  4.300010773E+02  4.303163137E+02  1.056583668E-01  0.00000E+00  9.000E+00
       4     1     1     2   511     0 -5.715726258E+00 -2.202603053E+01  7.970658684E+01  8.289122712E+01  0.000000000E+00  0.00000E+00  9.000E+00
#pdf   4 -4 0.66663890E-01 0.19842907E-03 0.47281509E+02 0.56807141E-01 0.18968077E+01
#rwgt            1           9   403.69877530788563         54217137    18490174           0
</event>
<event>
      6  10013  3.31628E+03  3.66918E+00 -1.00000E+00  2.72512E-01
       2    -1     0     0   511     0  0.000000000E+00  0.000000000E+00  4.608375607E+02  4.608375607E+02  0.000000000E+00  0.00000E+00  9.000E+00
      -2    -1     0     0     0   501  0.000000000E+00  0.000000000E+00 -5.191651048E+00  5.191651048E+00  0.000000000E+00  0.00000E+00  9.000E+00
      23     2     1     2     0     0  2.941582151E+00 -2.193164017E+00  3.565523413E+02  3.668677366E+02  8.630701689E+01  0.00000E+00  9.000E+00
      13     1     3     3     0     0 -3.222463482E+01 -7.533637139E+00  6.295233965E+01  7.112096041E+01  1.056583668E-01  0.00000E+00  9.000E+00
     -13     1     3     3     0     0  3.516621697E+01  5.340473121E+00  2.936000017E+02  2.957467762E+02  1.056583668E-01  0.00000E+00  9.000E+00
      21     1     1     2   511   501 -2.941582151E+00  2.193164017E+00  9.909356830E+01  9.916147514E+01  0.000000000E+00  0.00000E+00  9.000E+00
#pdf   2 -2 0.55597479E-01 0.79277585E-03 0.86307017E+02 0.62983255E+00 0.15721291E+01
#rwgt            1           7   1109.7448208397273         54217137    18490223           0
</event>
<event>
      6  10013  3.31628E+03  4.44607E+00 -1.00000E+00  2.53001E-01
      21    -1     0     0   511   501  0.000000000E+00  0.000000000E+00  7.833112141E+02  7.833112141E+02  0.000000000E+00  0.00000E+00  9.000E+00
       1    -1     0     0   501     0  0.000000000E+00  0.000000000E+00 -2.927205230E+00  2.927205230E+00  0.000000000E+00  0.00000E+00  9.000E+00
      23     2     1     2     0     0 -2.234871623E+00 -3.843550034E+00  7.599279019E+02  7.653047182E+02  9.044958917E+01  0.00000E+00  9.000E+00
      13     1     3     3     0     0  2.222873445E+01  3.637455973E+01  4.139021232E+02  4.160915812E+02  1.056583668E-01  0.00000E+00  9.000E+00
     -13     1     3     3     0     0 -2.446360608E+01 -4.021810977E+01  3.460257787E+02  3.492131370E+02  1.056583668E-01  0.00000E+00  9.000E+00
       1     1     1     2   511     0  2.234871623E+00  3.843550034E+00  2.045610702E+01  2.093370111E+01  0.000000000E+00  0.00000E+00  9.000E+00
#pdf  -1  1 0.11718410E+00 0.41310248E-03 0.90449589E+02 0.94315535E-01 0.20666398E+01
#rwgt            1           5   237.53775389237276         54217137    18490356           0
</event>
<event>
      6  10013  3.31628E+03  1.26003E+01 -1.00000E+00  1.84775E-01
       4    -1     0     0   511     0  0.000000000E+00  0.000000000E+00  8.309349013E+01  8.309349013E+01  0.000000000E+00  0.00000E+00  9.000E+00
      -4    -1     0     0     0   501  0.000000000E+00  0.000000000E+00 -3.356113762E+01  3.356113762E+01  0.000000000E+00  0.00000E+00  9.000E+00
      23     2     1     2     0     0  3.551253077E+00 -1.208948306E+01  3.775888219E+01  9.940987196E+01  9.109238420E+01  0.00000E+00  9.000E+00
      13     1     3     3     0     0 -3.489571348E+01 -1.925503993E+01  4.448377913E+01  5.972675407E+01  1.056583668E-01  0.00000E+00  9.000E+00
     -13     1     3     3     0     0  3.844696656E+01  7.165556870E+00 -6.724896938E+00  3.968311789E+01  1.056583668E-01  0.00000E+00  9.000E+00
      21     1     1     2   511   501 -3.551253077E+00  1.208948306E+01  1.177347032E+01  1.724475579E+01  1.685873940E-07  0.00000E+00  9.000E+00
#pdf   4 -4 0.10451925E-01 0.46976553E-02 0.91092384E+02 0.33939226E+00 0.55225847E+00
#rwgt            1           9   146.89012592038512         54217137    18490465           0
</event>
<event>
      6  10013  3.31628E+03  3.79295E+00 -1.00000E+00  2.68917E-01
       1    -1     0     0   501     0  0.000000000E+00  0.000000000E+00  1.856919258E+00  1.856919258E+00  0.000000000E+00  0.00000E+00  9.000E+00
      21    -1     0     0   511   501  0.000000000E+00  0.000000000E+00 -2.135183717E+02  2.135183717E+02  0.000000000E+00  0.00000E+00  9.000E+00
      23     2     1     2     0     0 -9.348563606E-01 -3.675935989E+00 -2.099096471E+02  2.111973389E+02  2.297541185E+01  0.00000E+00  9.000E+00
      13     1     3     3     0     0 -3.138526212E+00  1.504770658E+00 -1.979266099E+02  1.979572398E+02  1.056583668E-01  0.00000E+00  9.000E+00
     -13     1     3     3     0     0  2.203669851E+00 -5.180706647E+00 -1.198303711E+01  1.324009910E+01  1.056583668E-01  0.00000E+00  9.000E+00
       1     1     1     2   511     0  9.348563606E-01  3.675935989E+00 -1.751805413E+00  4.177952132E+00  0.000000000E+00  0.00000E+00  9.000E+00
#pdf   1 -1 0.97730404E-04 0.31960253E-01 0.22975412E+02 0.23428091E+01 0.27866553E+00
#rwgt            1           6   177.11637046579889         54217137    18490602           0
</event>
<event>
      6  10013 -3.31628E+03  5.40399E+00 -1.00000E+00  2.32684E-01
       2    -1     0     0   501     0  0.000000000E+00  0.000000000E+00  4.864713698E+01  4.864713698E+01  0.000000000E+00  0.00000E+00  9.000E+00
      -2    -1     0     0     0   511  0.000000000E+00  0.000000000E+00 -5.786827428E+01  5.786827428E+01  0.000000000E+00  0.00000E+00  9.000E+00
      23     2     1     2     0     0 -4.226025328E+00  3.368062936E+00 -7.859049424E-01  9.649761295E+01  9.634297339E+01  0.00000E+00  9.000E+00
      13     1     3     3     0     0  1.302599603E+01  1.616710624E+01  4.298668372E+01  4.773801459E+01  1.056583668E-01  0.00000E+00  9.000E+00
     -13     1     3     3     0     0 -1.725202135E+01 -1.279904330E+01 -4.377258866E+01  4.875959836E+01  1.056583668E-01  0.00000E+00  9.000E+00
      21     1     1     2   501   511  4.226025328E+00 -3.368062936E+00 -8.435232357E+00  1.001779831E+01  0.000000000E+00  0.00000E+00  9.000E+00
#pdf   2 -2 0.73508844E-02 0.74716031E-02 0.96342973E+02 0.82148624E+00 0.60747002E+00
#rwgt            1           7  -474.88163217655546         54217137    18490671           0
</event>
<event>
      6  10013  3.31628E+03  3.35072E+00 -1.00000E+00  2.82893E-01
      -1    -1     0     0     0   501  0.000000000E+00  0.000000000E+00  2.848896892E+01  2.848896892E+01  0.000000000E+00  0.00000E+00  9.000E+00
       1    -1     0     0   511     0  0.000000000E+00  0.000000000E+00 -1.249988296E+02  1.249988296E+02  0.000000000E+00  0.00000E+00  9.000E+00
      23     2     1     2     0     0 -2.861468085E+00  1.743357371E+00 -3.928992674E+01  9.616984204E+01  8.771381237E+01  0.00000E+00  9.000E+00
      13     1     3     3     0     0 -2.309577547E+01 -1.272247025E+01 -5.887567763E+01  6.451071751E+01  1.056583668E-01  0.00000E+00  9.000E+00
     -13     1     3     3     0     0  2.023430738E+01  1.446582762E+01  1.958575089E+01  3.165912453E+01  1.056583668E-01  0.00000E+00  9.000E+00
      21     1     1     2   511   501  2.861468085E+00 -1.743357371E+00 -5.721993398E+01  5.731795652E+01  1.168007728E-06  0.00000E+00  9.000E+00
#pdf  -1  1 0.43721891E-02 0.10412388E-01 0.87713812E+02 0.78866218E+00 0.66564916E+00
#rwgt            1           5   684.33818769154891         54217137    18490772           0
</event>
<event>
      6  10013  3.31628E+03  7.47962E+01 -1.00000E+00  1.29754E-01
       1    -1     0     0   501     0  0.000000000E+00  0.000000000E+00  1.270489004E+02  1.270489004E+02  0.000000000E+00  0.00000E+00  9.000E+00
      21    -1     0     0   511   501  0.000000000E+00  0.000000000E+00 -3.651190400E+02  3.651190400E+02  0.000000000E+00  0.00000E+00  9.000E+00
      23     2     1     2     0     0 -6.097561369E+01  4.331793638E+01  9.459260221E+01  1.512002456E+02  9.121011342E+01  0.00000E+00  9.000E+00
      13     1     3     3     0     0 -3.514058968E+01  1.991020996E+01 -9.443357616E+00  4.147849648E+01  1.056583668E-01  0.00000E+00  9.000E+00
     -13     1     3     3     0     0 -2.583502401E+01  2.340772642E+01  1.040359598E+02  1.097217491E+02  1.056583668E-01  0.00000E+00  9.000E+00
       1     1     1     2   511     0  6.097561369E+01 -4.331793638E+01 -3.326627419E+02  3.409676948E+02  0.000000000E+00  0.00000E+00  9.000E+00
#pdf   1 -1 0.14619978E-01 0.33670732E-02 0.91210113E+02 0.60430480E+00 0.88703025E+00
#rwgt            1           6   442.27237384806307         54217137    18490897           0
</event>
<event>
      6  10013  3.31628E+03  1.13056E+02 -1.00000E+00  1.21456E-01
       2    -1     0     0   501     0  0.000000000E+00  0.000000000E+00  9.961069029E+02  9.961069029E+02  0.000000000E+00  0.00000E+00  9.000E+00
      21    -1     0     0   511   501  0.000000000E+00  0.000000000E+00 -1.537480748E+01  1.537480748E+01  0.000000000E+00  0.00000E+00  9.000E+00
      23     2     1     2     0     0 -6.370889554E+01 -9.339593859E+01  3.130781369E+02  3.343233589E+02  3.118595440E+01  0.00000E+00  9.000E+00
      13     1     3     3     0     0  2.449522700E+00 -1.217212174E+01  3.772361820E+01  3.971452182E+01  1.056583668E-01  0.00000E+00  9.000E+00
     -13     1     3     3     0     0 -6.615841824E+01 -8.122381686E+01  2.753545187E+02  2.946088370E+02  1.056583668E-01  0.00000E+00  9.000E+00
       2     1     1     2   511     0  6.370889554E+01  9.339593859E+01  6.676539585E+02  6.771583515E+02  0.000000000E+00  0.00000E+00  9.000E+00
#pdf   2 -2 0.13242559E-01 0.43456973E-03 0.31185954E+02 0.67437189E+00 0.15780510E+01
#rwgt            1           7   920.30558822346541         54217137    18490978           0
</event>
<event>
      5  10013  3.31628E+03  8.94427E-01 -1.00000E+00  7.51068E-01
      -2    -1     0     0     0   501  0.000000000E+00  0.000000000E+00  7.166911388E-01  7.166911388E-01  0.000000000E+00  0.00000E+00  9.000E+00
       2    -1     0     0   501     0  0.000000000E+00  0.000000000E+00 -1.395557777E+02  1.395557777E+02  0.000000000E+00  0.00000E+00  9.000E+00
      23     2     1     2     0     0  0.000000000E+00  0.000000000E+00 -1.388390865E+02  1.402724688E+02  2.000183884E+01  0.00000E+00  9.000E+00
      13     1     3     3     0     0  4.498712943E+00  1.779989822E+00 -8.040776340E+00  9.384669933E+00  1.056583668E-01  0.00000E+00  9.000E+00
     -13     1     3     3     0     0 -4.498712943E+00 -1.779989822E+00 -1.307983102E+02  1.308877989E+02  1.056583668E-01  0.00000E+00  9.000E+00
#pdf  -2  2 0.11026018E-03 0.21470120E-01 0.20001839E+02 0.21413904E+01 0.62760958E+00
#rwgt            1           4   1317.3011274526818         54217137    18491107           0
</event>
<event>
      6  10013  3.31628E+03  2.57451E+00 -1.00000E+00  3.18436E-01
       1    -1     0     0   511     0  0.000000000E+00  0.000000000E+00  2.958126447E+02  2.958126447E+02  0.000000000E+00  0.00000E+00  9.000E+00
      -1    -1     0     0     0   501  0.000000000E+00  0.000000000E+00 -9.724895022E+00  9.724895022E+00  0.000000000E+00  0.00000E+00  9.000E+00
      23     2     1     2     0     0 -2.561721321E+00 -2.562900281E-01  1.943448023E+02  2.137584762E+02  8.897278168E+01  0.00000E+00  9.000E+00
      13     1     3     3     0     0 -2.204763514E+01 -1.995683472E+01  1.698526254E+01  3.424739077E+01  1.056583668E-01  0.00000E+00  9.000E+00
     -13     1     3     3     0     0  1.948591382E+01  1.970054469E+01  1.773595397E+02  1.795110854E+02  1.056583668E-01  0.00000E+00  9.000E+00
      21     1     1     2   511   501  2.561721321E+00  2.562900281E-01  9.174294745E+01  9.177906356E+01  0.000000000E+00  0.00000E+00  9.000E+00
#pdf   1 -1 0.31379426E-01 0.14927347E-02 0.88972782E+02 0.49631232E+00 0.12380422E+01
#rwgt            1           6   696.00841889427340         54217137    18491403           0
</event>
<event>
      6  10013  3.31628E+03  3.45039E+00 -1.00000E+00  2.79451E-01
      21    -1     0     0   501   511  0.000000000E+00  0.000000000E+00  6.393120889E+02  6.393120889E+02  0.000000000E+00  0.00000E+00  9.000E+00
      -4    -1     0     0     0   501  0.000000000E+00  0.000000000E+00 -8.270928012E-01  8.270928012E-01  0.000000000E+00  0.00000E+00  9.000E+00
      23     2     1     2     0     0  1.155067048E+00  3.251312405E+00  2.248119114E+02  2.264517076E+02  2.698286793E+01  0.00000E+00  9.000E+00
      13     1     3     3     0     0 -6.538689082E+00  1.052519394E+01  1.791578951E+02  1.795859034E+02  1.056583668E-01  0.00000E+00  9.000E+00
     -13     1     3     3     0     0  7.693756131E+00 -7.273881531E+00  4.565401629E+01  4.686580420E+01  1.056583668E-01  0.00000E+00  9.000E+00
      -4     1     1     2     0   511 -1.155067048E+00 -3.251312405E+00  4.136730847E+02  4.136874741E+02  0.000000000E+00  0.00000E+00  9.000E+00
#pdf   4 -4 0.34432216E-01 0.12511937E-03 0.26982868E+02 0.11287550E+00 0.18292000E+01
#rwgt            1           9   194.65693020899602         54217137    18491526           0
</event>
<event>
      6  10013  3.31628E+03  2.05788E+00 -1.00000E+00  3.57180E-01
      -1    -1     0     0     0   501  0.000000000E+00  0.000000000E+00  2.451537915E+02  2.451537915E+02  0.000000000E+00  0.00000E+00  9.000E+00
       1    -1     0     0   511     0  0.000000000E+00  0.000000000E+00 -9.922890047E-01  9.922890047E-01  0.000000000E+00  0.00000E+00  9.000E+00
      23     2     1     2     0     0 -3.334014933E-01  2.030689198E+00  2.388493516E+02  2.404492567E+02  2.761516603E+01  0.00000E+00  9.000E+00
      13     1     3     3     0     0 -1.158319477E+01 -4.059634753E+00  6.632379665E+01  6.745004226E+01  1.056583668E-01  0.00000E+00  9.000E+00
     -13     1     3     3     0     0  1.124979327E+01  6.090323951E+00  1.725255550E+02  1.729992144E+02  1.056583668E-01  0.00000E+00  9.000E+00
      21     1     1     2   511   501  3.334014933E-01 -2.030689198E+00  5.312150832E+00  5.696823820E+00  1.685873940E-07  0.00000E+00  9.000E+00
#pdf  -1  1 0.36767177E-01 0.12272932E-03 0.27615166E+02 0.25940624E+00 0.23186476E+01
#rwgt            1           5   165.94314842093613         54217137    18491748           0
</event>
<event>
      6  10013  3.31628E+03  1.11780E+01 -1.00000E+00  1.90273E-01
      21    -1     0     0   511   501  0.000000000E+00  0.000000000E+00  2.715102442E+01  2.715102442E+01  0.000000000E+00  0.00000E+00  9.000E+00
       2    -1     0     0   501     0  0.000000000E+00  0.000000000E+00 -1.310617514E+01  1.310617514E+01  0.000000000E+00  0.00000E+00  9.000E+00
      23     2     1     2     0     0 -8.878896686E+00  6.790611356E+00  9.882378870E+00  2.832935949E+01  2.408202624E+01  0.00000E+00  9.000E+00
      13     1     3     3     0     0 -2.123792038E+00  1.309752983E+01  1.299945055E+01  1.857559309E+01  1.056583668E-01  0.00000E+00  9.000E+00
     -13     1     3     3     0     0 -6.755104647E+00 -6.306918475E+00 -3.117071681E+00  9.753766401E+00  1.056583668E-01  0.00000E+00  9.000E+00
       2     1     1     2   511     0  8.878896686E+00 -6.790611356E+00  4.162470404E+00  1.192784007E+01  0.000000000E+00  0.00000E+00  9.000E+00
#pdf  -2  2 0.26661552E-02 0.12871048E-02 0.24082026E+02 0.78763319E+00 0.10978833E+01
#rwgt            1           4   614.02507871552859         54217137    18491869           0
</event>
<event>
      6  10013  3.31628E+03  9.79213E+00 -1.00000E+00  1.96759E-01
       4    -1     0     0   501     0  0.000000000E+00  0.000000000E+00  2.064211233E+02  2.064211233E+02  0.000000000E+00  0.00000E+00  9.000E+00
      21    -1     0     0   511   501  0.000000000E+00  0.000000000E+00 -1.889196054E+01  1.889196054E+01  0.000000000E+00  0.00000E+00  9.000E+00
      23     2     1     2     0     0 -8.733534087E+00 -4.428461297E+00  1.941664880E+02  2.134834611E+02  8.819680945E+01  0.00000E+00  9.000E+00
      13     1     3     3     0     0 -1.587394446E+01 -8.916159929E+00 -9.053310974E-01  1.822939409E+01  1.056583668E-01  0.00000E+00  9.000E+00
     -13     1     3     3     0     0  7.140410377E+00  4.487698633E+00  1.950718191E+02  1.952540670E+02  1.056583668E-01  0.00000E+00  9.000E+00
       4     1     1     2   511     0  8.733534087E+00  4.428461297E+00 -6.637325287E+00  1.182962274E+01  0.000000000E+00  0.00000E+00  9.000E+00
#pdf   4 -4 0.31166188E-01 0.14768465E-02 0.88196809E+02 0.14049951E+00 0.98194419E+00
#rwgt            1           9   149.80188796843044         54217137    18491983           0
</event>
<event>
      6  10013  3.31628E+03  1.04205E+01 -1.00000E+00  1.93655E-01
      -2    -1     0     0     0   501  0.000000000E+00  0.000000000E+00  5.614911107E+01  5.614911107E+01  0.000000000E+00  0.00000E+00  9.000E+00
       2    -1     0     0   511     0  0.000000000E+00  0.000000000E+00 -4.778251484E+01  4.778251484E+01  0.000000000E+00  0.00000E+00  9.000E+00
      23     2     1     2     0     0  5.674827846E+00 -8.739743556E+00  1.386826955E+01  9.214794236E+01  9.050042869E+01  0.00000E+00  9.000E+00
      13     1     3     3     0     0 -3.173313193E+01  2.095914511E+01  2.164000035E+01  4.375589337E+01  1.056583668E-01  0.00000E+00  9.000E+00
     -13     1     3     3     0     0  3.740795977E+01 -2.969888867E+01 -7.771730806E+00  4.839204899E+01  1.056583668E-01  0.00000E+00  9.000E+00
      21     1     1     2   511   501 -5.674827846E+00  8.739743556E+00 -5.501673324E+00  1.178368354E+01  2.598106231E-07  0.00000E+00  9.000E+00
#pdf  -2  2 0.81015651E-02 0.59819895E-02 0.90500429E+02 0.58054205E+00 0.86127514E+00
#rwgt            1           4   464.55526139414053         54217137    18492114           0
</event>
<event>
      6  10013  3.31628E+03  4.00121E+00 -1.00000E+00  2.63331E-01
      -2    -1     0     0     0   511  0.000000000E+00  0.000000000E+00  3.961251773E+00  3.961251773E+00  0.000000000E+00  0.00000E+00  9.000E+00
       2    -1     0     0   501     0  0.000000000E+00  0.000000000E+00 -6.035461335E+02  6.035461335E+02  0.000000000E+00  0.00000E+00  9.000E+00
      23     2     1     2     0     0 -3.995541905E+00  2.129742495E-01 -5.911752508E+02  5.981944048E+02  9.128175637E+01  0.00000E+00  9.000E+00
      13     1     3     3     0     0 -2.463698302E+01 -3.196839839E+00 -4.330845879E+01  4.992829342E+01  1.056583668E-01  0.00000E+00  9.000E+00
     -13     1     3     3     0     0  2.064144111E+01  3.409814088E+00 -5.478667920E+02  5.482661114E+02  1.056583668E-01  0.00000E+00  9.000E+00
      21     1     1     2   501   511  3.995541905E+00 -2.129742495E-01 -8.409630890E+00  9.312980450E+00  1.192092896E-07  0.00000E+00  9.000E+00
#pdf  -2  2 0.53941696E-03 0.91402206E-01 0.91281756E+02 0.18412124E+01 0.60859254E+00
#rwgt            1           4   1093.7680758851573         54217137    18492178           0
</event>
<event>
      6  10013  3.31628E+03  3.06613E+01 -1.00000E+00  1.52350E-01
      21    -1     0     0   511   501  0.000000000E+00  0.000000000E+00  9.998261820E+02  9.998261820E+02  0.000000000E+00  0.00000E+00  9.000E+00
       1    -1     0     0   501     0  0.000000000E+00  0.000000000E+00 -4.271620817E+00  4.271620817E+00  0.000000000E+00  0.00000E+00  9.000E+00
      23     2     1     2     0     0  2.817135053E+01  1.210322894E+01  6.419416475E+02  6.491580814E+02  9.152607642E+01  0.00000E+00  9.000E+00
      13     1     3     3     0     0  5.781677551E+01  2.101633968E+01  5.065854564E+02  5.103070662E+02  1.056583668E-01  0.00000E+00  9.000E+00
     -13     1     3     3     0     0 -2.964542499E+01 -8.913110748E+00  1.353561912E+02  1.388510152E+02  1.056583668E-01  0.00000E+00  9.000E+00
       1     1     1     2   511     0 -2.817135053E+01 -1.210322894E+01  3.536129137E+02  3.549397214E+02  0.000000000E+00  0.00000E+00  9.000E+00
#pdf  -1  1 0.94171626E-01 0.52636005E-03 0.91526076E+02 0.12257043E+00 0.18972780E+01
#rwgt            1           5   299.04873228084921         54217137    18492415           0
</event>
<event>
      6  10013  3.31628E+03  9.43238E+01 -1.00000E+00  1.24957E-01
      -1    -1     0     0     0   501  0.000000000E+00  0.000000000E+00  2.100444821E+02  2.100444821E+02  0.000000000E+00  0.00000E+00  9.000E+00
       1    -1     0     0   511     0  0.000000000E+00  0.000000000E+00 -1.122865169E+02  1.122865169E+02  0.000000000E+00  0.00000E+00  9.000E+00
      23     2     1     2     0     0 -9.320349910E+01  1.449426407E+01  1.613572407E+02  2.085687743E+02  9.256240362E+01  0.00000E+00  9.000E+00
      13     1     3     3     0     0 -6.123340905E+01 -3.478657447E+01  6.568904169E+01  9.630523095E+01  1.056583668E-01  0.00000E+00  9.000E+00
     -13     1     3     3     0     0 -3.197009005E+01  4.928083855E+01  9.566819898E+01  1.122635434E+02  1.056583668E-01  0.00000E+00  9.000E+00
      21     1     1     2   511   501  9.320349910E+01 -1.449426407E+01 -6.359927547E+01  1.137622247E+02  1.907348633E-06  0.00000E+00  9.000E+00
#pdf  -1  1 0.19930796E-01 0.25436531E-02 0.92562404E+02 0.37976252E+00 0.10724213E+01
#rwgt            1           5   565.47650557115048         54217137    18492489           0
</event>
<event>
      6  10013  3.31628E+03  3.29861E+01 -1.00000E+00  1.50198E-01
       2    -1     0     0   501     0  0.000000000E+00  0.000000000E+00  2.368882842E+01  2.368882842E+01  0.000000000E+00  0.00000E+00  9.000E+00
      -2    -1     0     0     0   511  0.000000000E+00  0.000000000E+00 -1.981166640E+02  1.981166640E+02  0.000000000E+00  0.00000E+00  9.000E+00
      23     2     1     2     0     0 -2.665137551E+00 -3.287825781E+01 -9.992277253E+01  1.403248983E+02  9.283552026E+01  0.00000E+00  9.000E+00
      13     1     3     3     0     0  4.206805622E+01  1.448280973E+00 -4.067655711E+01  5.853556469E+01  1.056583668E-01  0.00000E+00  9.000E+00
     -13     1     3     3     0     0 -4.473319377E+01 -3.432653878E+01 -5.924621542E+01  8.178933362E+01  1.056583668E-01  0.00000E+00  9.000E+00
      21     1     1     2   501   511  2.665137551E+00  3.287825781E+01 -7.450506305E+01  8.148059410E+01  1.348699152E-06  0.00000E+00  9.000E+00
#pdf   2 -2 0.29284873E-02 0.17413991E-01 0.92835520E+02 0.10638114E+01 0.38468624E+00
#rwgt            1           7   430.49512508517643         54217137    18492570           0
</event>
<event>
      6  10013  3.31628E+03  3.15926E+01 -1.00000E+00  1.51461E-01
      21    -1     0     0   511   501  0.000000000E+00  0.000000000E+00  2.548882371E+00  2.548882371E+00  0.000000000E+00  0.00000E+00  9.000E+00
       2    -1     0     0   501     0  0.000000000E+00  0.000000000E+00 -1.904339347E+03  1.904339347E+03  0.000000000E+00  0.00000E+00  9.000E+00
      23     2     1     2     0     0  4.243052059E+00  3.130632897E+01 -1.701961209E+03  1.704577031E+03  8.895395837E+01  0.00000E+00  9.000E+00
      13     1     3     3     0     0  1.529194347E+00  6.214494468E+01 -1.260289649E+03  1.261821835E+03  1.056583668E-01  0.00000E+00  9.000E+00
     -13     1     3     3     0     0  2.713857712E+00 -3.083861571E+01 -4.416715599E+02  4.427551956E+02  1.056583668E-01  0.00000E+00  9.000E+00
       2     1     1     2   511     0 -4.243052059E+00 -3.130632897E+01 -1.998292549E+02  2.023111980E+02  0.000000000E+00  0.00000E+00  9.000E+00
#pdf  -2  2 0.18961354E-03 0.24693036E+00 0.88953958E+02 0.26977615E+01 0.42382906E+00
#rwgt            1           4   2031.2811779512122         54217137    18492620           0
</event>
<event>
      6  10013  3.31628E+03  6.34450E+00 -1.00000E+00  2.21695E-01
      -2    -1     0     0     0   511  0.000000000E+00  0.000000000E+00  1.387807721E+00  1.387807721E+00  0.000000000E+00  0.00000E+00  9.000E+00
       2    -1     0     0   501     0  0.000000000E+00  0.000000000E+00 -1.223870881E+03  1.223870881E+03  0.000000000E+00  0.00000E+00  9.000E+00
      23     2     1     2     0     0 -3.568485985E+00 -5.245821702E+00 -1.160556547E+03  1.163008007E+03  7.520553470E+01  0.00000E+00  9.000E+00
      13     1     3     3     0     0 -6.088856975E+00 -3.498658886E+01 -9.079446280E+02  9.086388690E+02  1.056583668E-01  0.00000E+00  9.000E+00
     -13     1     3     3     0     0  2.520370989E+00  2.974076716E+01 -2.526119193E+02  2.543691381E+02  1.056583668E-01  0.00000E+00  9.000E+00
      21     1     1     2   501   511  3.568485985E+00  5.245821702E+00 -6.192652596E+01  6.225068156E+01  6.743495762E-07  0.00000E+00  9.000E+00
#pdf  -2  2 0.18790636E-03 0.17810308E+00 0.75205535E+02 0.26070731E+01 0.52617417E+00
#rwgt            1           4   368.16074222214939         54217137    18492649           0
</event>
<event>
      6  10013  3.31628E+03  1.32367E+01 -1.00000E+00  1.82607E-01
      -1    -1     0     0     0   511  0.000000000E+00  0.000000000E+00  7.636517337E+00  7.636517337E+00  0.000000000E+00  0.00000E+00  9.000E+00
       1    -1     0     0   501     0  0.000000000E+00  0.000000000E+00 -1.510834236E+03  1.510834236E+03  0.000000000E+00  0.00000E+00  9.000E+00
      23     2     1     2     0     0 -5.679774980E+00 -1.195619345E+01 -1.502658509E+03  1.505223069E+03  8.682557941E+01  0.00000E+00  9.000E+00
      13     1     3     3     0     0  1.921379185E+01 -3.505600631E+01 -3.893864254E+02  3.914331269E+02  1.056583668E-01  0.00000E+00  9.000E+00
     -13     1     3     3     0     0 -2.489356683E+01  2.309981286E+01 -1.113272084E+03  1.113789942E+03  1.056583668E-01  0.00000E+00  9.000E+00
      21     1     1     2   501   511  5.679774980E+00  1.195619345E+01 -5.392097607E-01  1.324768481E+01  3.804176274E-07  0.00000E+00  9.000E+00
#pdf  -1  1 0.19502055E-03 0.22873273E+00 0.86825579E+02 0.26609200E+01 0.19985926E+00
#rwgt            1           5   983.77926938783014         54217137    18492788           0
</event>
<event>
      6  10013  3.31628E+03  8.92438E+00 -1.00000E+00  2.01587E-01
      -2    -1     0     0     0   511  0.000000000E+00  0.000000000E+00  3.867278323E+00  3.867278323E+00  0.000000000E+00  0.00000E+00  9.000E+00
       2    -1     0     0   501     0  0.000000000E+00  0.000000000E+00 -6.279673064E+02  6.279673064E+02  0.000000000E+00  0.00000E+00  9.000E+00
      23     2     1     2     0     0 -6.119427376E+00  6.495934563E+00 -5.820846945E+02  5.888819037E+02  8.876745067E+01  0.00000E+00  9.000E+00
      13     1     3     3     0     0  4.021497756E+01 -7.118354424E+00 -2.542169418E+02  2.574765621E+02  1.056583668E-01  0.00000E+00  9.000E+00
     -13     1     3     3     0     0 -4.633440494E+01  1.361428899E+01 -3.278677527E+02  3.314053415E+02  1.056583668E-01  0.00000E+00  9.000E+00
      21     1     1     2   501   511  6.119427376E+00 -6.495934563E+00 -4.201533356E+01  4.295268107E+01  6.743495762E-07  0.00000E+00  9.000E+00
#pdf  -2  2 0.52023966E-03 0.89622557E-01 0.88767451E+02 0.18570684E+01 0.61018020E+00
#rwgt            1           4   1301.2469375170826         54217137    18492829           0
</event>
<event>
      6  10013 -3.31628E+03  3.01909E+01 -1.00000E+00  1.52814E-01
      21    -1     0     0   501   511  0.000000000E+00  0.000000000E+00  5.263373096E+01  5.263373096E+01  0.000000000E+00  0.00000E+00  9.000E+00
      -2    -1     0     0     0   501  0.000000000E+00  0.000000000E+00 -2.186758849E+01  2.186758849E+01  0.000000000E+00  0.00000E+00  9.000E+00
      23     2     1     2     0     0 -2.434422173E+01 -1.785639900E+01  1.817256878E+01  4.178908604E+01  2.246315514E+01  0.00000E+00  9.000E+00
      13     1     3     3     0     0 -1.362185175E+01 -1.327066665E+01  2.239994240E+01  2.938424785E+01  1.056583668E-01  0.00000E+00  9.000E+00
     -13     1     3     3     0     0 -1.072236998E+01 -4.585732349E+00 -4.227373614E+00  1.240483819E+01  1.056583668E-01  0.00000E+00  9.000E+00
      -2     1     1     2     0   511  2.434422173E+01  1.785639900E+01  1.259357368E+01  3.271223342E+01  0.000000000E+00  0.00000E+00  9.000E+00
#pdf   2 -2 0.27533174E-02 0.10844225E-02 0.22463155E+02 0.88145005E+00 0.10674927E+01
#rwgt            1           7  -1355.4454720951346         54217137    18493004           0
</event>
<event>
      6  10013  3.31628E+03  1.29850E+01 -1.00000E+00  1.83445E-01
       4    -1     0     0   501     0  0.000000000E+00  0.000000000E+00  1.679172469E+01  1.679172469E+01  0.000000000E+00  0.00000E+00  9.000E+00
      21    -1     0     0   511   501  0.000000000E+00  0.000000000E+00 -3.651438297E+02  3.651438297E+02  0.000000000E+00  0.00000E+00  9.000E+00
      23     2     1     2     0     0 -1.044413124E+01  7.715615776E+00 -1.006437350E+02  1.338870769E+02  8.733829268E+01  0.00000E+00  9.000E+00
      13     1     3     3     0     0  6.583766428E+00 -1.380141189E+01 -1.049964808E+02  1.061041804E+02  1.056583668E-01  0.00000E+00  9.000E+00
     -13     1     3     3     0     0 -1.702789767E+01  2.151702766E+01  4.352745834E+00  2.778289651E+01  1.056583668E-01  0.00000E+00  9.000E+00
       4     1     1     2   511     0  1.044413124E+01 -7.715615776E+00 -2.477083700E+02  2.480484774E+02  0.000000000E+00  0.00000E+00  9.000E+00
#pdf   4 -4 0.25293780E-02 0.17844688E-01 0.87338293E+02 0.75839903E+00 0.22879247E+00
#rwgt            1           9   173.23952138685212         54217137    18493078           0
</event>
<event>
      6  10013  3.31628E+03  4.90715E+01 -1.00000E+00  1.39513E-01
       3    -1     0     0   501     0  0.000000000E+00  0.000000000E+00  6.643626669E+01  6.643626669E+01  0.000000000E+00  0.00000E+00  9.000E+00
      21    -1     0     0   511   501  0.000000000E+00  0.000000000E+00 -1.085613608E+02  1.085613608E+02  0.000000000E+00  0.00000E+00  9.000E+00
      23     2     1     2     0     0 -6.658860720E+00  4.861764731E+01  8.481431963E+00  1.045062341E+02  9.187819235E+01  0.00000E+00  9.000E+00
      13     1     3     3     0     0 -3.194013594E+01  5.042706607E+00 -2.762185395E+01  4.252739298E+01  1.056583668E-01  0.00000E+00  9.000E+00
     -13     1     3     3     0     0  2.528127522E+01  4.357494070E+01  3.610328591E+01  6.197884116E+01  1.056583668E-01  0.00000E+00  9.000E+00
       3     1     1     2   511     0  6.658860720E+00 -4.861764731E+01 -5.060652611E+01  7.049139338E+01  0.000000000E+00  0.00000E+00  9.000E+00
#pdf   3 -3 0.76664251E-02 0.65154630E-02 0.91878192E+02 0.56449617E+00 0.61366406E+00
#rwgt            1           8   330.46870306803783         54217137    18493179           0
</event>
<event>
      6  10013  3.31628E+03  7.07749E+01 -1.00000E+00  1.30954E-01
      -2    -1     0     0     0   501  0.000000000E+00  0.000000000E+00  1.945843941E+02  1.945843941E+02  0.000000000E+00  0.00000E+00  9.000E+00
      21    -1     0     0   501   511  0.000000000E+00  0.000000000E+00 -4.822623821E+01  4.822623821E+01  0.000000000E+00  0.00000E+00  9.000E+00
      23     2     1     2     0     0  3.609159112E+01 -6.088093582E+01  1.235419778E+02  1.684488862E+02  9.001841867E+01  0.00000E+00  9.000E+00
      13     1     3     3     0     0  1.144914797E+01 -3.866951010E+01 -2.076462344E-01  4.032949642E+01  1.056583668E-01  0.00000E+00  9.000E+00
     -13     1     3     3     0     0  2.464244316E+01 -2.221142572E+01  1.237496240E+02  1.281193898E+02  1.056583668E-01  0.00000E+00  9.000E+00
      -2     1     1     2     0   511 -3.609159112E+01  6.088093582E+01  2.281617810E+01  7.436174608E+01  0.000000000E+00  0.00000E+00  9.000E+00
#pdf  -2  2 0.17656966E-01 0.27155636E-02 0.90018419E+02 0.38099068E+00 0.10856450E+01
#rwgt            1           4   775.03586458520533         54217137    18493236           0
</event>
<event>
      6  10013  3.31628E+03  1.20600E+01 -1.00000E+00  1.86748E-01
      21    -1     0     0   511   501  0.000000000E+00  0.000000000E+00  1.458297100E+01  1.458297100E+01  0.000000000E+00  0.00000E+00  9.000E+00
       3    -1     0     0   501     0  0.000000000E+00  0.000000000E+00 -9.987349443E+01  9.987349443E+01  0.000000000E+00  0.00000E+00  9.000E+00
      23     2     1     2     0     0 -1.199954335E+01  1.206166560E+00 -8.598589927E+01  1.023764230E+02  5.423940659E+01  0.00000E+00  9.000E+00
      13     1     3     3     0     0 -2.202453606E+00  2.290177227E+01 -1.490139228E+01  2.741176081E+01  1.056583668E-01  0.00000E+00  9.000E+00
     -13     1     3     3     0     0 -9.797089743E+00 -2.169560571E+01 -7.108450700E+01  7.496466216E+01  1.056583668E-01  0.00000E+00  9.000E+00
       3     1     1     2   511     0  1.199954335E+01 -1.206166560E+00  6.953758405E-01  1.208004246E+01  0.000000000E+00  0.00000E+00  9.000E+00
#pdf  -3  3 0.12307532E-02 0.14143998E-01 0.54239407E+02 0.11840567E+01 0.38592628E+00
#rwgt            1           3   255.89409581520931         54217137    18493343           0
</event>
<event>
      6  10013  3.31628E+03  4.62631E+01 -1.00000E+00  1.40998E-01
      21    -1     0     0   511   501  0.000000000E+00  0.000000000E+00  1.875753350E+01  1.875753350E+01  0.000000000E+00  0.00000E+00  9.000E+00
       1    -1     0     0   501     0  0.000000000E+00  0.000000000E+00 -1.837116710E+03  1.837116710E+03  0.000000000E+00  0.00000E+00  9.000E+00
      23     2     1     2     0     0  4.165920939E+01  2.011929352E+01 -1.804850477E+03  1.807679216E+03  8.988118660E+01  0.00000E+00  9.000E+00
      13     1     3     3     0     0  6.320532134E+01  1.838057991E+01 -1.651661193E+03  1.652972313E+03  1.056583668E-01  0.00000E+00  9.000E+00
     -13     1     3     3     0     0 -2.154611195E+01  1.738713614E+00 -1.531892838E+02  1.547069032E+02  1.056583668E-01  0.00000E+00  9.000E+00
       1     1     1     2   511     0 -4.165920939E+01 -2.011929352E+01 -1.350869920E+01  4.819502726E+01  0.000000000E+00  0.00000E+00  9.000E+00
#pdf  -1  1 0.19347113E-03 0.24707837E+00 0.89881187E+02 0.26887398E+01 0.18011273E+00
#rwgt            1           5   1156.5844116708402         54217137    18493382           0
</event>
<event>
      6  10013  3.31628E+03  2.22866E+01 -1.00000E+00  1.62541E-01
      21    -1     0     0   511   501  0.000000000E+00  0.000000000E+00  7.643778438E+00  7.643778438E+00  0.000000000E+00  0.00000E+00  9.000E+00
       1    -1     0     0   501     0  0.000000000E+00  0.000000000E+00 -5.055166897E+02  5.055166897E+02  0.000000000E+00  0.00000E+00  9.000E+00
      23     2     1     2     0     0 -1.552724728E+01 -1.598745624E+01 -3.159545000E+02  3.298819846E+02  9.218559291E+01  0.00000E+00  9.000E+00
      13     1     3     3     0     0 -7.143787561E-01 -3.786076034E+01 -5.052232963E+01  6.313845473E+01  1.056583668E-01  0.00000E+00  9.000E+00
     -13     1     3     3     0     0 -1.481286853E+01  2.187330410E+01 -2.654321704E+02  2.667435299E+02  1.056583668E-01  0.00000E+00  9.000E+00
       1     1     1     2   511     0  1.552724728E+01  1.598745624E+01 -1.819184113E+02  1.832784835E+02  0.000000000E+00  0.00000E+00  9.000E+00
#pdf  -1  1 0.10413453E-02 0.48288603E-01 0.92185593E+02 0.14360910E+01 0.44836947E+00
#rwgt            1           5   669.73151010774086         54217137    18493423           0
</event>
<event>
      6  10013  3.31628E+03  8.38760E+01 -1.00000E+00  1.27339E-01
      21    -1     0     0   511   501  0.000000000E+00  0.000000000E+00  1.937199352E+01  1.937199352E+01  0.000000000E+00  0.00000E+00  9.000E+00
       1    -1     0     0   501     0  0.000000000E+00  0.000000000E+00 -1.019684362E+03  1.019684362E+03  0.000000000E+00  0.00000E+00  9.000E+00
      23     2     1     2     0     0 -8.061495246E+01 -2.316058103E+01 -8.645761375E+02  8.794959987E+02  1.377901704E+02  0.00000E+00  9.000E+00
      13     1     3     3     0     0 -1.649330887E+01  3.265715597E+01 -6.100840023E+02  6.111800226E+02  1.056583668E-01  0.00000E+00  9.000E+00
     -13     1     3     3     0     0 -6.412164359E+01 -5.581773701E+01 -2.544921353E+02  2.683159761E+02  1.056583668E-01  0.00000E+00  9.000E+00
       1     1     1     2   511     0  8.061495246E+01  2.316058103E+01 -1.357362309E+02  1.595603567E+02  0.000000000E+00  0.00000E+00  9.000E+00
#pdf  -1  1 0.98033623E-03 0.11459739E+00 0.13779017E+03 0.15648521E+01 0.33394473E+00
#rwgt            1           5   1349.3140846290003         54217137    18493558           0
</event>
<event>
      6  10013  3.31628E+03  5.77003E+00 -1.00000E+00  2.28060E-01
      -3    -1     0     0     0   501  0.000000000E+00  0.000000000E+00  8.101913171E+01  8.101913171E+01  0.000000000E+00  0.00000E+00  9.000E+00
      21    -1     0     0   501   511  0.000000000E+00  0.000000000E+00 -3.863140417E+01  3.863140417E+01  0.000000000E+00  0.00000E+00  9.000E+00
      23     2     1     2     0     0 -4.550199565E+00 -3.548094120E+00  5.532298836E+01  1.054866995E+02  8.962989147E+01  0.00000E+00  9.000E+00
      13     1     3     3     0     0 -2.256771746E+00  3.784980853E+00 -2.470272255E+01  2.509292258E+01  1.056583668E-01  0.00000E+00  9.000E+00
     -13     1     3     3     0     0 -2.293427819E+00 -7.333074973E+00  8.002571091E+01  8.039377694E+01  1.056583668E-01  0.00000E+00  9.000E+00
      -3     1     1     2     0   511  4.550199565E+00  3.548094120E+00 -1.293526082E+01  1.416383636E+01  0.000000000E+00  0.00000E+00  9.000E+00
#pdf  -3  3 0.12344423E-01 0.38507759E-02 0.89629891E+02 0.43325038E+00 0.78887280E+00
#rwgt            1           3   468.54325170600720         54217137    18493595           0
</event>
<event>
      6  10013  3.31628E+03  3.63344E+01 -1.00000E+00  1.47445E-01
      21    -1     0     0   501   511  0.000000000E+00  0.000000000E+00  1.303715958E+00  1.303715958E+00  0.000000000E+00  0.00000E+00  9.000E+00
      -2    -1     0     0     0   501  0.000000000E+00  0.000000000E+00 -1.250503691E+03  1.250503691E+03  0.000000000E+00  0.00000E+00  9.000E+00
      23     2     1     2     0     0 -3.630458336E+01 -1.472905957E+00 -8.040537408E+02  8.051807597E+02  2.221363071E+01  0.00000E+00  9.000E+00
      13     1     3     3     0     0  8.191707090E-02  5.440800320E+00 -1.236091039E+02  1.237288598E+02  1.056583668E-01  0.00000E+00  9.000E+00
     -13     1     3     3     0     0 -3.638650043E+01 -6.913706277E+00 -6.804446369E+02  6.814518998E+02  1.056583668E-01  0.00000E+00  9.000E+00
      -2     1     1     2     0   511  3.630458336E+01  1.472905957E+00 -4.451462339E+02  4.466266469E+02  0.000000000E+00  0.00000E+00  9.000E+00
#pdf   2 -2 0.45220162E-04 0.64568437E-01 0.22213631E+02 0.29154568E+01 0.14582920E+00
#rwgt            1           7   489.35743295024298         54217137    18493761           0
</event>
<event>
      6  10013  3.31628E+03  3.12577E+00 -1.00000E+00  2.91425E-01
       2    -1     0     0   501     0  0.000000000E+00  0.000000000E+00  1.893355985E+02  1.893355985E+02  0.000000000E+00  0.00000E+00  9.000E+00
      -2    -1     0     0     0   511  0.000000000E+00  0.000000000E+00 -7.566342662E-01  7.566342662E-01  0.000000000E+00  0.00000E+00  9.000E+00
      23     2     1     2     0     0  1.922001752E+00 -2.465025873E+00  1.699259761E+02  1.711791576E+02  2.043761786E+01  0.00000E+00  9.000E+00
      13     1     3     3     0     0  1.916736262E+00  2.728302141E+00  4.162570303E+00  5.334385221E+00  1.056583668E-01  0.00000E+00  9.000E+00
     -13     1     3     3     0     0  5.265490226E-03 -5.193328014E+00  1.657634058E+02  1.658447724E+02  1.056583668E-01  0.00000E+00  9.000E+00
      21     1     1     2   501   511 -1.922001752E+00  2.465025873E+00  1.865298820E+01  1.891307516E+01  2.384185791E-07  0.00000E+00  9.000E+00
#pdf   2 -2 0.25937257E-01 0.95290541E-04 0.20437618E+02 0.62440547E+00 0.22546341E+01
#rwgt            1           7   1634.8724791045565         54217137    18493788           0
</event>
<event>
      6  10013  3.31628E+03  1.76186E+00 -1.00000E+00  3.90630E-01
       2    -1     0     0   511     0  0.000000000E+00  0.000000000E+00  1.223558469E+01  1.223558469E+01  0.000000000E+00  0.00000E+00  9.000E+00
      -2    -1     0     0     0   501  0.000000000E+00  0.000000000E+00 -1.846361738E+02  1.846361738E+02  0.000000000E+00  0.00000E+00  9.000E+00
      23     2     1     2     0     0 -3.873737846E-01 -1.718745601E+00 -1.708213852E+02  1.945057429E+02  9.300233454E+01  0.00000E+00  9.000E+00
      13     1     3     3     0     0 -2.375093725E+01  1.378691718E+01 -7.052725379E+00  2.835380405E+01  1.056583668E-01  0.00000E+00  9.000E+00
     -13     1     3     3     0     0  2.336356346E+01 -1.550566278E+01 -1.637686598E+02  1.661519388E+02  1.056583668E-01  0.00000E+00  9.000E+00
      21     1     1     2   511   501  3.873737846E-01  1.718745601E+00 -1.579203927E+00  2.366015624E+00  5.161913656E-08  0.00000E+00  9.000E+00
#pdf   2 -2 0.18215468E-02 0.28097045E-01 0.93002335E+02 0.12429100E+01 0.28371382E+00
#rwgt            1           7   544.16854986332680         54217137    18493835           0
</event>
<event>
      6  10013  3.31628E+03  2.53279E+00 -1.00000E+00  3.20957E-01
      -2    -1     0     0     0   511  0.000000000E+00  0.000000000E+00  7.201472873E+00  7.201472873E+00  0.000000000E+00  0.00000E+00  9.000E+00
       2    -1     0     0   501     0  0.000000000E+00  0.000000000E+00 -3.458811831E+02  3.458811831E+02  0.000000000E+00  0.00000E+00  9.000E+00
      23     2     1     2     0     0  2.527575729E+00 -1.624410236E-01 -3.378036903E+02  3.504026491E+02  9.308205133E+01  0.00000E+00  9.000E+00
      13     1     3     3     0     0 -2.890065748E+00 -4.430332437E-01 -3.429273912E+02  3.429398717E+02  1.056583668E-01  0.00000E+00  9.000E+00
     -13     1     3     3     0     0  5.417641477E+00  2.805922202E-01  5.123700960E+00  7.462777390E+00  1.056583668E-01  0.00000E+00  9.000E+00
      21     1     1     2   501   511 -2.527575729E+00  1.624410236E-01 -8.760199693E-01  2.680006929E+00  5.475036225E-08  0.00000E+00  9.000E+00
#pdf  -2  2 0.96879210E-03 0.52919362E-01 0.93082051E+02 0.14720464E+01 0.63134260E+00
#rwgt            1           4   905.31350223598668         54217137    18494085           0
</event>
<event>
      6  10013  3.31628E+03  3.65664E+00 -1.00000E+00  2.72889E-01
       1    -1     0     0   501     0  0.000000000E+00  0.000000000E+00  9.066914698E+00  9.066914698E+00  0.000000000E+00  0.00000E+00  9.000E+00
      -1    -1     0     0     0   511  0.000000000E+00  0.000000000E+00 -3.090898297E+01  3.090898297E+01  0.000000000E+00  0.00000E+00  9.000E+00
      23     2     1     2     0     0  1.039445754E+00 -3.505795174E+00 -1.871380736E+01  3.516371899E+01  2.954504189E+01  0.00000E+00  9.000E+00
      13     1     3     3     0     0  3.080129516E+00 -7.307210162E-01 -2.647919771E+01  2.666796254E+01  1.056583668E-01  0.00000E+00  9.000E+00
     -13     1     3     3     0     0 -2.040683761E+00 -2.775074158E+00  7.765390346E+00  8.495756453E+00  1.056583668E-01  0.00000E+00  9.000E+00
      21     1     1     2   501   511 -1.039445754E+00  3.505795174E+00 -3.128260910E+00  4.812178675E+00  8.429369702E-08  0.00000E+00  9.000E+00
#pdf   1 -1 0.12557964E-02 0.41130434E-02 0.29545042E+02 0.11321430E+01 0.70301650E+00
#rwgt            1           6   304.19634518705931         54217137    18494327           0
</event>
<event>
      6  10013  3.31628E+03  2.47120E+00 -1.00000E+00  3.24837E-01
      -2    -1     0     0     0   501  0.000000000E+00  0.000000000E+00  2.112143097E-01  2.112143097E-01  0.000000000E+00  0.00000E+00  9.000E+00
       2    -1     0     0   511     0  0.000000000E+00  0.000000000E+00 -9.964632090E+02  9.964632090E+02  0.000000000E+00  0.00000E+00  9.000E+00
      23     2     1     2     0     0 -2.456656570E+00 -2.676904455E-01 -8.907996931E+02  8.911931703E+02  2.636411945E+01  0.00000E+00  9.000E+00
      13     1     3     3     0     0 -5.901983690E+00  1.696705068E+00 -4.891041789E+01  4.929454697E+01  1.056583668E-01  0.00000E+00  9.000E+00
     -13     1     3     3     0     0  3.445327120E+00 -1.964395514E+00 -8.418892752E+02  8.418986233E+02  1.056583668E-01  0.00000E+00  9.000E+00
      21     1     1     2   511   501  2.456656570E+00  2.676904455E-01 -1.054523016E+02  1.054812530E+02  1.907348633E-06  0.00000E+00  9.000E+00
#pdf  -2  2 0.30135385E-04 0.13647814E+00 0.26364119E+02 0.34914523E+01 0.60178920E+00
#rwgt            1           4   3338.9349566321071         54217137    18494439           0
</event>
<event>
      6  10013  3.31628E+03  8.14281E+00 -1.00000E+00  2.06606E-01
      -3    -1     0     0     0   501  0.000000000E+00  0.000000000E+00  2.131004401E+02  2.131004401E+02  0.000000000E+00  0.00000E+00  9.000E+00
       3    -1     0     0   511     0  0.000000000E+00  0.000000000E+00 -1.311759428E+00  1.311759428E+00  0.000000000E+00  0.00000E+00  9.000E+00
      23     2     1     2     0     0 -1.663169945E+00 -7.971149611E+00  1.831461117E+02  1.846346557E+02  2.193518831E+01  0.00000E+00  9.000E+00
      13     1     3     3     0     0 -5.897140385E+00 -3.178285104E+00  1.574277042E+01  1.710917137E+01  1.056583668E-01  0.00000E+00  9.000E+00
     -13     1     3     3     0     0  4.233970440E+00 -4.792864507E+00  1.674033413E+02  1.675254843E+02  1.056583668E-01  0.00000E+00  9.000E+00
      21     1     1     2   511   501  1.663169945E+00  7.971149611E+00  2.864256896E+01  2.977754384E+01  5.840038640E-07  0.00000E+00  9.000E+00
#pdf  -3  3 0.26522331E-01 0.10734562E-03 0.21935188E+02 0.24435594E+00 0.21588092E+01
#rwgt            1           3   123.49946160505475         54217137    18494628           0
</event>
<event>
      6  10013  3.31628E+03  9.67273E-01 -1.00000E+00  6.78296E-01
       2    -1     0     0   501     0  0.000000000E+00  0.000000000E+00  2.880121644E+03  2.880121644E+03  0.000000000E+00  0.00000E+00  9.000E+00
      -2    -1     0     0     0   511  0.000000000E+00  0.000000000E+00 -1.461369705E-01  1.461369705E-01  0.000000000E+00  0.00000E+00  9.000E+00
      23     2     1     2     0     0 -2.288395308E-01 -9.398133401E-01  2.866926343E+03  2.867182816E+03  3.833680616E+01  0.00000E+00  9.000E+00
      13     1     3     3     0     0 -7.901491503E+00  1.287431945E+00  2.736633263E+03  2.736644975E+03  1.056583668E-01  0.00000E+00  9.000E+00
     -13     1     3     3     0     0  7.672651972E+00 -2.227245285E+00  1.302930792E+02  1.305378407E+02  1.056583668E-01  0.00000E+00  9.000E+00
      21     1     1     2   501   511  2.288395308E-01  9.398133401E-01  1.304916439E+01  1.308496495E+01  6.951036328E-07  0.00000E+00  9.000E+00
#pdf   2 -2 0.44094499E+00 0.19722444E-04 0.38336806E+02 0.18635100E+00 0.45329682E+01
#rwgt            1           7   4497.7814774837188         54217137    18494663           0
</event>
<event>
      6  10013  3.31628E+03  2.55752E+01 -1.00000E+00  1.57977E-01
      -1    -1     0     0     0   511  0.000000000E+00  0.000000000E+00  8.016633717E+01  8.016633717E+01  0.000000000E+00  0.00000E+00  9.000E+00
       1    -1     0     0   501     0  0.000000000E+00  0.000000000E+00 -4.815882327E+01  4.815882327E+01  0.000000000E+00  0.00000E+00  9.000E+00
      23     2     1     2     0     0  2.557445061E+01 -1.941139832E-01  3.735701001E+00  9.020186561E+01  8.641950529E+01  0.00000E+00  9.000E+00
      13     1     3     3     0     0 -3.107064566E+01 -5.245526492E+00  9.825267088E+00  3.300678122E+01  1.056583668E-01  0.00000E+00  9.000E+00
     -13     1     3     3     0     0  5.664509627E+01  5.051412508E+00 -6.089566086E+00  5.719508439E+01  1.056583668E-01  0.00000E+00  9.000E+00
      21     1     1     2   501   511 -2.557445061E+01  1.941139832E-01  2.827181289E+01  3.812329483E+01  0.000000000E+00  0.00000E+00  9.000E+00
#pdf  -1  1 0.69289109E-02 0.63778143E-02 0.86419505E+02 0.64065701E+00 0.77571444E+00
#rwgt            1           5   561.26678747382289         54217137    18494917           0
</event>
<event>
      6  10013  3.31628E+03  4.16651E+01 -1.00000E+00  1.43719E-01
      21    -1     0     0   511   501  0.000000000E+00  0.000000000E+00  4.134211302E+02  4.134211302E+02  0.000000000E+00  0.00000E+00  9.000E+00
       3    -1     0     0   501     0  0.000000000E+00  0.000000000E+00 -1.572759614E+01  1.572759614E+01  0.000000000E+00  0.00000E+00  9.000E+00
      23     2     1     2     0     0  2.019766612E+01 -3.644219945E+01  1.591699674E+02  1.870134925E+02  8.889875271E+01  0.00000E+00  9.000E+00
      13     1     3     3     0     0  2.162736454E+00 -3.201929573E+01  5.909305373E+00  3.263194419E+01  1.056583668E-01  0.00000E+00  9.000E+00
     -13     1     3     3     0     0  1.803492967E+01 -4.422903719E+00  1.532606620E+02  1.543815483E+02  1.056583668E-01  0.00000E+00  9.000E+00
       3     1     1     2   511     0 -2.019766612E+01  3.644219945E+01  2.385235667E+02  2.421352339E+02  0.000000000E+00  0.00000E+00  9.000E+00
#pdf  -3  3 0.24112562E-01 0.19393727E-02 0.88898753E+02 0.28045466E+00 0.10673691E+01
#rwgt            1           3   394.84945023697628         54217137    18494950           0
</event>
<event>
      6  10013  3.31628E+03  7.37522E+00 -1.00000E+00  2.12329E-01
       2    -1     0     0   511     0  0.000000000E+00  0.000000000E+00  1.217111633E+03  1.217111633E+03  0.000000000E+00  0.00000E+00  9.000E+00
      -2    -1     0     0     0   501  0.000000000E+00  0.000000000E+00 -2.394807625E+00  2.394807625E+00  0.000000000E+00  0.00000E+00  9.000E+00
      23     2     1     2     0     0 -2.640642652E+00 -6.886281055E+00  8.833847639E+02  8.880923057E+02  9.102147280E+01  0.00000E+00  9.000E+00
      13     1     3     3     0     0 -2.464725859E+01 -2.702053065E+01  1.614097771E+02  1.655014312E+02  1.056583668E-01  0.00000E+00  9.000E+00
     -13     1     3     3     0     0  2.200661594E+01  2.013424959E+01  7.219749868E+02  7.225908744E+02  1.056583668E-01  0.00000E+00  9.000E+00
      21     1     1     2   511   501  2.640642652E+00  6.886281055E+00  3.313320615E+02  3.314141349E+02  3.814697266E-06  0.00000E+00  9.000E+00
#pdf   2 -2 0.13582233E+00 0.36093569E-03 0.91021473E+02 0.56988336E+00 0.21409821E+01
#rwgt            1           7   1375.4681628707829         54217137    18495059           0
</event>
<event>
      6  10013  3.31628E+03  3.38470E+00 -1.00000E+00  2.81698E-01
       2    -1     0     0   501     0  0.000000000E+00  0.000000000E+00  2.136995189E+03  2.136995189E+03  0.000000000E+00  0.00000E+00  9.000E+00
      -2    -1     0     0     0   511  0.000000000E+00  0.000000000E+00 -1.143546216E+00  1.143546216E+00  0.000000000E+00  0.00000E+00  9.000E+00
      23     2     1     2     0     0  3.358191493E+00 -4.227802856E-01  2.117749639E+03  2.119723015E+03  9.138201446E+01  0.00000E+00  9.000E+00
      13     1     3     3     0     0 -8.356379158E+00 -4.013225637E+01  5.949029685E+02  5.963136592E+02  1.056583668E-01  0.00000E+00  9.000E+00
     -13     1     3     3     0     0  1.171457065E+01  3.970947608E+01  1.522846670E+03  1.523409356E+03  1.056583668E-01  0.00000E+00  9.000E+00
      21     1     1     2   501   511 -3.358191493E+00  4.227802856E-01  1.810200359E+01  1.841571957E+01  7.152557373E-07  0.00000E+00  9.000E+00
#pdf   2 -2 0.32573607E+00 0.15169417E-03 0.91382014E+02 0.30638355E+00 0.29404695E+01
#rwgt            1           7   1445.8282314794421         54217137    18495151           0
</event>
<event>
      6  10013  3.31628E+03  2.63281E+00 -1.00000E+00  3.15048E-01
      -2    -1     0     0     0   511  0.000000000E+00  0.000000000E+00  8.580523973E+00  8.580523973E+00  0.000000000E+00  0.00000E+00  9.000E+00
       2    -1     0     0   501     0  0.000000000E+00  0.000000000E+00 -2.199411287E+01  2.199411287E+01  0.000000000E+00  0.00000E+00  9.000E+00
      23     2     1     2     0     0 -2.021642083E+00 -1.686609884E+00 -1.410933866E+01  2.785144803E+01  2.386834787E+01  0.00000E+00  9.000E+00
      13     1     3     3     0     0 -5.078154333E+00  2.710507647E+00 -1.945209301E+01  2.028619208E+01  1.056583668E-01  0.00000E+00  9.000E+00
     -13     1     3     3     0     0  3.056512250E+00 -4.397117531E+00  5.342754350E+00  7.565255941E+00  1.056583668E-01  0.00000E+00  9.000E+00
      21     1     1     2   501   511  2.021642083E+00  1.686609884E+00  6.957497614E-01  2.723188819E+00  4.012260442E-08  0.00000E+00  9.000E+00
#pdf  -2  2 0.10507125E-02 0.32082937E-02 0.23868348E+02 0.10947097E+01 0.85770644E+00
#rwgt            1           4   845.41892915524920         54217137    18495355           0
</event>
<event>
      6  10013  3.31628E+03  4.92048E+00 -1.00000E+00  2.43840E-01
       2    -1     0     0   501     0  0.000000000E+00  0.000000000E+00  2.087152941E+03  2.087152941E+03  0.000000000E+00  0.00000E+00  9.000E+00
      -2    -1     0     0     0   511  0.000000000E+00  0.000000000E+00 -3.637462567E+00  3.637462567E+00  0.000000000E+00  0.00000E+00  9.000E+00
      23     2     1     2     0     0  4.590100867E+00  1.772589880E+00  2.082230951E+03  2.085705021E+03  1.202309822E+02  0.00000E+00  9.000E+00
      13     1     3     3     0     0  1.481338700E+01  3.503644429E+00  2.068211230E+03  2.068267250E+03  1.056583668E-01  0.00000E+00  9.000E+00
     -13     1     3     3     0     0 -1.022328614E+01 -1.731054549E+00  1.401972125E+01  1.743777156E+01  1.056583668E-01  0.00000E+00  9.000E+00
      21     1     1     2   501   511 -4.590100867E+00 -1.772589880E+00  1.284526504E+00  5.085381912E+00  1.490116119E-08  0.00000E+00  9.000E+00
#pdf   2 -2 0.32034231E+00 0.26701262E-03 0.12023098E+03 0.30475302E+00 0.25304771E+01
#rwgt            1           7   5686.4491451625208         54217137    18495533           0
</event>
<event>
      6  10013  3.31628E+03  5.23623E+00 -1.00000E+00  2.34980E-01
       1    -1     0     0   511     0  0.000000000E+00  0.000000000E+00  2.732113884E+03  2.732113884E+03  0.000000000E+00  0.00000E+00  9.000E+00
      -1    -1     0     0     0   501  0.000000000E+00  0.000000000E+00 -9.649445575E-01  9.649445575E-01  0.000000000E+00  0.00000E+00  9.000E+00
      23     2     1     2     0     0 -4.990939614E+00  1.583868491E+00  2.276183438E+03  2.278083196E+03  9.286865179E+01  0.00000E+00  9.000E+00
      13     1     3     3     0     0 -2.616918557E+00  2.470687766E+01  2.123069272E+03  2.123214644E+03  1.056583668E-01  0.00000E+00  9.000E+00
     -13     1     3     3     0     0 -2.374021057E+00 -2.312300917E+01  1.531141665E+02  1.548685529E+02  1.056583668E-01  0.00000E+00  9.000E+00
      21     1     1     2   511   501  4.990939614E+00 -1.583868491E+00  4.549655013E+02  4.549956324E+02  9.344061824E-06  0.00000E+00  9.000E+00
#pdf   1 -1 0.34977267E+00 0.14590350E-03 0.92868652E+02 0.94645262E-01 0.29965719E+01
#rwgt            1           6   922.61224499315449         54217137    18495647           0
</event>
<event>
      6  10013  3.31628E+03  2.81313E+00 -1.00000E+00  3.05461E-01
      -2    -1     0     0     0   501  0.000000000E+00  0.000000000E+00  6.356537976E+00  6.356537976E+00  0.000000000E+00  0.00000E+00  9.000E+00
       2    -1     0     0   511     0  0.000000000E+00  0.000000000E+00 -3.789678573E+02  3.789678573E+02  0.000000000E+00  0.00000E+00  9.000E+00
      23     2     1     2     0     0 -4.725001781E-01  2.773166168E+00 -3.225594901E+02  3.351935733E+02  9.111637173E+01  0.00000E+00  9.000E+00
      13     1     3     3     0     0 -7.450436017E+00  7.106821418E-01  4.044967334E+00  8.508054441E+00  1.056583668E-01  0.00000E+00  9.000E+00
     -13     1     3     3     0     0  6.977935839E+00  2.062484027E+00 -3.266044575E+02  3.266855189E+02  1.056583668E-01  0.00000E+00  9.000E+00
      21     1     1     2   511   501  4.725001781E-01 -2.773166168E+00 -5.005182919E+01  5.013082198E+01  9.536743164E-07  0.00000E+00  9.000E+00
#pdf  -2  2 0.97138969E-03 0.50572292E-01 0.91116372E+02 0.14653699E+01 0.63272573E+00
#rwgt            1           4   1099.2901113289283         54217137    18495801           0
</event>
<event>
      6  10013  3.31628E+03  8.15407E+00 -1.00000E+00  2.06528E-01
      21    -1     0     0   501   511  0.000000000E+00  0.000000000E+00  1.064701045E+02  1.064701045E+02  0.000000000E+00  0.00000E+00  9.000E+00
      -3    -1     0     0     0   501  0.000000000E+00  0.000000000E+00 -3.034924209E+01  3.034924209E+01  0.000000000E+00  0.00000E+00  9.000E+00
      23     2     1     2     0     0  2.236029179E+00 -7.841489077E+00  6.227344865E+01  1.207495101E+02  1.031308538E+02  0.00000E+00  9.000E+00
      13     1     3     3     0     0 -1.232664906E+01 -2.514753358E+01  8.451092814E+01  8.903062878E+01  1.056583668E-01  0.00000E+00  9.000E+00
     -13     1     3     3     0     0  1.456267824E+01  1.730604450E+01 -2.223747949E+01  3.171888131E+01  1.056583668E-01  0.00000E+00  9.000E+00
      -3     1     1     2     0   511 -2.236029179E+00  7.841489077E+00  1.384741381E+01  1.606983655E+01  0.000000000E+00  0.00000E+00  9.000E+00
#pdf   3 -3 0.14034889E-01 0.44841645E-02 0.10313085E+03 0.40487860E+00 0.74606748E+00
#rwgt            1           8   565.38136551178479         54217137    18496029           0
</event>
<event>
      6  10013  3.31628E+03  3.09733E+00 -1.00000E+00  2.92588E-01
      -3    -1     0     0     0   501  0.000000000E+00  0.000000000E+00  3.199862479E+02  3.199862479E+02  0.000000000E+00  0.00000E+00  9.000E+00
      21    -1     0     0   501   511  0.000000000E+00  0.000000000E+00 -8.052143528E+00  8.052143528E+00  0.000000000E+00  0.00000E+00  9.000E+00
      23     2     1     2     0     0  1.489842225E+00 -2.715477674E+00  3.118645519E+02  3.249402813E+02  9.119810447E+01  0.00000E+00  9.000E+00
      13     1     3     3     0     0 -1.576540524E+01  3.964839719E+01  1.910317519E+02  1.957388179E+02  1.056583668E-01  0.00000E+00  9.000E+00
     -13     1     3     3     0     0  1.725524746E+01 -4.236387486E+01  1.208328000E+02  1.292014635E+02  1.056583668E-01  0.00000E+00  9.000E+00
      -3     1     1     2     0   511 -1.489842225E+00  2.715477674E+00  6.955252267E-02  3.098110135E+00  0.000000000E+00  0.00000E+00  9.000E+00
#pdf  -3  3 0.48956760E-01 0.10052458E-02 0.91198104E+02 0.15351670E+00 0.14056931E+01
#rwgt            1           3   280.87187309537819         54217137    18496114           0
</event>
<event>
      6  10013  3.31628E+03  1.66227E+00 -1.00000E+00  4.04979E-01
      -2    -1     0     0     0   501  0.000000000E+00  0.000000000E+00  7.955851640E+01  7.955851640E+01  0.000000000E+00  0.00000E+00  9.000E+00
       2    -1     0     0   511     0  0.000000000E+00  0.000000000E+00 -2.469641836E+00  2.469641836E+00  0.000000000E+00  0.00000E+00  9.000E+00
      23     2     1     2     0     0  1.274817284E+00 -1.066755480E+00  7.315861707E+01  7.776083468E+01  2.630211079E+01  0.00000E+00  9.000E+00
      13     1     3     3     0     0 -7.535402644E+00 -5.998368535E+00  1.032139810E+01  1.411754726E+01  1.056583668E-01  0.00000E+00  9.000E+00
     -13     1     3     3     0     0  8.810219928E+00  4.931613055E+00  6.283721897E+01  6.364328742E+01  1.056583668E-01  0.00000E+00  9.000E+00
      21     1     1     2   511   501 -1.274817284E+00  1.066755480E+00  3.930257490E+00  4.267323553E+00  4.214684851E-08  0.00000E+00  9.000E+00
#pdf  -2  2 0.11586074E-01 0.35331186E-03 0.26302111E+02 0.43576404E+00 0.16525582E+01
#rwgt            1           4   573.72762717159378         54217137    18496255           0
</event>
<event>
      6  10013  3.31628E+03  9.85564E+00 -1.00000E+00  1.96431E-01
      21    -1     0     0   511   501  0.000000000E+00  0.000000000E+00  1.362023486E+02  1.362023486E+02  0.000000000E+00  0.00000E+00  9.000E+00
       3    -1     0     0   501     0  0.000000000E+00  0.000000000E+00 -6.629951251E+01  6.629951251E+01  0.000000000E+00  0.00000E+00  9.000E+00
      23     2     1     2     0     0  9.664699383E+00 -1.930608292E+00 -3.177683405E+01  1.003456622E+02  9.466969457E+01  0.00000E+00  9.000E+00
      13     1     3     3     0     0  1.905831358E+01 -3.483918911E+01  1.494502378E+01  4.243057051E+01  1.056583668E-01  0.00000E+00  9.000E+00
     -13     1     3     3     0     0 -9.393614201E+00  3.290858081E+01 -4.672185783E+01  5.791509166E+01  1.056583668E-01  0.00000E+00  9.000E+00
       3     1     1     2   511     0 -9.664699383E+00  1.930608292E+00  1.016796701E+02  1.021561989E+02  0.000000000E+00  0.00000E+00  9.000E+00
#pdf  -3  3 0.52461729E-02 0.10108638E-01 0.94669695E+02 0.68540452E+00 0.48749404E+00
#rwgt            1           3   300.04804137849942         54217137    18496478           0
</event>
<event>
      6  10013  3.31628E+03  4.34218E+00 -1.00000E+00  2.55243E-01
      21    -1     0     0   511   501  0.000000000E+00  0.000000000E+00  5.790202383E+00  5.790202383E+00  0.000000000E+00  0.00000E+00  9.000E+00
       4    -1     0     0   501     0  0.000000000E+00  0.000000000E+00 -9.525507927E+01  9.525507927E+01  0.000000000E+00  0.00000E+00  9.000E+00
      23     2     1     2     0     0 -1.262957724E+00  4.154447127E+00 -9.272463357E+01  9.561568620E+01  2.292699901E+01  0.00000E+00  9.000E+00
      13     1     3     3     0     0 -3.652294477E+00 -3.315528514E+00 -8.288816113E+01  8.303487463E+01  1.056583668E-01  0.00000E+00  9.000E+00
     -13     1     3     3     0     0  2.389336752E+00  7.469975641E+00 -9.836472434E+00  1.258081157E+01  1.056583668E-01  0.00000E+00  9.000E+00
       4     1     1     2   511     0  1.262957724E+00 -4.154447127E+00  3.259756683E+00  5.429595453E+00  0.000000000E+00  0.00000E+00  9.000E+00
#pdf  -4  4 0.21850441E-03 0.14234674E-01 0.22926999E+02 0.14220315E+01 0.22294192E+00
#rwgt            1           2   249.05212487869804         54217137    18496547           0
</event>
<event>
      6  10013  3.31628E+03  4.28120E+00 -1.00000E+00  2.56604E-01
       1    -1     0     0   511     0  0.000000000E+00  0.000000000E+00  2.592672278E+01  2.592672278E+01  0.000000000E+00  0.00000E+00  9.000E+00
      -1    -1     0     0     0   501  0.000000000E+00  0.000000000E+00 -9.791931571E+01  9.791931571E+01  0.000000000E+00  0.00000E+00  9.000E+00
      23     2     1     2     0     0 -2.446092632E+00  3.513586699E+00 -7.480784167E+01  1.187221448E+02  9.208911900E+01  0.00000E+00  9.000E+00
      13     1     3     3     0     0 -8.618465330E+00 -4.257447319E+01 -4.922180883E+01  6.564801094E+01  1.056583668E-01  0.00000E+00  9.000E+00
     -13     1     3     3     0     0  6.172372698E+00  4.608805989E+01 -2.558603285E+01  5.307413390E+01  1.056583668E-01  0.00000E+00  9.000E+00
      21     1     1     2   511   501  2.446092632E+00 -3.513586699E+00  2.815248742E+00  5.123893650E+00  8.940696716E-08  0.00000E+00  9.000E+00
#pdf   1 -1 0.33743788E-02 0.14870861E-01 0.92089119E+02 0.96952500E+00 0.44379247E+00
#rwgt            1           6   467.71580091169722         54217137    18496624           0
</event>
<event>
      6  10013  3.31628E+03  2.45108E+00 -1.00000E+00  3.26148E-01
       2    -1     0     0   501     0  0.000000000E+00  0.000000000E+00  2.515552609E+03  2.515552609E+03  0.000000000E+00  0.00000E+00  9.000E+00
      -2    -1     0     0     0   511  0.000000000E+00  0.000000000E+00 -1.045851157E+00  1.045851157E+00  0.000000000E+00  0.00000E+00  9.000E+00
      23     2     1     2     0     0 -1.529162532E+00 -1.915581710E+00  2.508135292E+03  2.509771794E+03  9.058591598E+01  0.00000E+00  9.000E+00
      13     1     3     3     0     0  1.746727698E+01 -1.253861285E+01  2.354931919E+03  2.355030080E+03  1.056583668E-01  0.00000E+00  9.000E+00
     -13     1     3     3     0     0 -1.899643951E+01  1.062303114E+01  1.532033729E+02  1.547417142E+02  1.056583668E-01  0.00000E+00  9.000E+00
      21     1     1     2   501   511  1.529162532E+00  1.915581710E+00  6.371466027E+00  6.826666146E+00  3.769728732E-07  0.00000E+00  9.000E+00
#pdf   2 -2 0.38585163E+00 0.12583873E-03 0.90585916E+02 0.22550179E+00 0.31367642E+01
#rwgt            1           7   5488.5868209829732         54217137    18496701           0
</event>
<event>
      6  10013  3.31628E+03  2.96880E+00 -1.00000E+00  2.98112E-01
       1    -1     0     0   511     0  0.000000000E+00  0.000000000E+00  2.823131942E+02  2.823131942E+02  0.000000000E+00  0.00000E+00  9.000E+00
      -1    -1     0     0     0   501  0.000000000E+00  0.000000000E+00 -1.069377407E+01  1.069377407E+01  0.000000000E+00  0.00000E+00  9.000E+00
      23     2     1     2     0     0  1.703344411E+00  2.431537222E+00  1.908981084E+02  2.122310812E+02  9.268835041E+01  0.00000E+00  9.000E+00
      13     1     3     3     0     0 -1.483349618E+00  4.522527375E+01  6.483210842E+01  7.906161620E+01  1.056583668E-01  0.00000E+00  9.000E+00
     -13     1     3     3     0     0  3.186694030E+00 -4.279373653E+01  1.260659999E+02  1.331694650E+02  1.056583668E-01  0.00000E+00  9.000E+00
      21     1     1     2   511   501 -1.703344411E+00 -2.431537222E+00  8.072131178E+01  8.077588706E+01  9.536743164E-07  0.00000E+00  9.000E+00
#pdf   1 -1 0.30994043E-01 0.16401568E-02 0.92688350E+02 0.49808717E+00 0.11990387E+01
#rwgt            1           6   630.40791086062973         54217137    18496929           0
</event>
<event>
      6  10013  3.31628E+03  1.42624E+01 -1.00000E+00  1.79423E-01
       1    -1     0     0   501     0  0.000000000E+00  0.000000000E+00  8.484897905E+01  8.484897905E+01  0.000000000E+00  0.00000E+00  9.000E+00
      21    -1     0     0   511   501  0.000000000E+00  0.000000000E+00 -3.629182430E+01  3.629182430E+01  0.000000000E+00  0.00000E+00  9.000E+00
      23     2     1     2     0     0  1.109565464E+01  8.961128185E+00  2.859183521E+01  9.660451686E+01  9.116756148E+01  0.00000E+00  9.000E+00
      13     1     3     3     0     0  5.116841162E+01  1.112888521E+00  1.228262118E+01  5.263381817E+01  1.056583668E-01  0.00000E+00  9.000E+00
     -13     1     3     3     0     0 -4.007275698E+01  7.848239664E+00  1.630921403E+01  4.397069869E+01  1.056583668E-01  0.00000E+00  9.000E+00
       1     1     1     2   511     0 -1.109565464E+01 -8.961128185E+00  1.996531954E+01  2.453628649E+01  0.000000000E+00  0.00000E+00  9.000E+00
#pdf   1 -1 0.95147608E-02 0.51688758E-02 0.91167561E+02 0.68589692E+00 0.73536633E+00
#rwgt            1           6   511.50786362682044         54217137    18497070           0
</event>
<event>
      6  10013  3.31628E+03  1.82258E+00 -1.00000E+00  3.82767E-01
      -1    -1     0     0     0   511  0.000000000E+00  0.000000000E+00  2.527535240E+02  2.527535240E+02  0.000000000E+00  0.00000E+00  9.000E+00
       1    -1     0     0   501     0  0.000000000E+00  0.000000000E+00 -9.415325266E+00  9.415325266E+00  0.000000000E+00  0.00000E+00  9.000E+00
      23     2     1     2     0     0  1.760275160E+00  4.724827856E-01  2.275943937E+02  2.463198996E+02  9.418579026E+01  0.00000E+00  9.000E+00
      13     1     3     3     0     0 -4.185348152E+01 -6.999052039E-01  6.013077614E+01  7.326612578E+01  1.056583668E-01  0.00000E+00  9.000E+00
     -13     1     3     3     0     0  4.361375668E+01  1.172387990E+00  1.674636176E+02  1.730537739E+02  1.056583668E-01  0.00000E+00  9.000E+00
      21     1     1     2   501   511 -1.760275160E+00 -4.724827856E-01  1.574380498E+01  1.584894961E+01  1.685873940E-07  0.00000E+00  9.000E+00
#pdf  -1  1 0.36448122E-01 0.14401539E-02 0.94185790E+02 0.26572839E+00 0.13206661E+01
#rwgt            1           5   635.76244407064530         54217137    18497203           0
</event>
<event>
      6  10013  3.31628E+03  1.03424E+01 -1.00000E+00  1.94025E-01
       2    -1     0     0   511     0  0.000000000E+00  0.000000000E+00  2.373555263E+02  2.373555263E+02  0.000000000E+00  0.00000E+00  9.000E+00
      -2    -1     0     0     0   501  0.000000000E+00  0.000000000E+00 -1.608869555E+01  1.608869555E+01  0.000000000E+00  0.00000E+00  9.000E+00
      23     2     1     2     0     0  5.528563344E-01  1.032758288E+01  1.029194144E+02  1.346457557E+02  8.619808021E+01  0.00000E+00  9.000E+00
      13     1     3     3     0     0 -4.870884165E+00  2.533086416E+01  1.129118635E+02  1.158208888E+02  1.056583668E-01  0.00000E+00  9.000E+00
     -13     1     3     3     0     0  5.423740500E+00 -1.500328128E+01 -9.992449089E+00  1.882486687E+01  1.056583668E-01  0.00000E+00  9.000E+00
      21     1     1     2   511   501 -5.528563344E-01 -1.032758288E+01  1.183474163E+02  1.187984662E+02  0.000000000E+00  0.00000E+00  9.000E+00
#pdf   2 -2 0.18144108E-01 0.24231085E-02 0.86198080E+02 0.68669985E+00 0.10010131E+01
#rwgt            1           7   547.77471215525532         54217137    18497430           0
</event>
<event>
      6  10013  3.31628E+03  2.05608E+01 -1.00000E+00  1.65343E-01
       3    -1     0     0   511     0  0.000000000E+00  0.000000000E+00  9.484795126E+01  9.484795126E+01  0.000000000E+00  0.00000E+00  9.000E+00
      -3    -1     0     0     0   501  0.000000000E+00  0.000000000E+00 -7.928954169E+00  7.928954169E+00  0.000000000E+00  0.00000E+00  9.000E+00
      23     2     1     2     0     0  1.208543875E+01 -1.663390697E+01  4.400374839E+01  5.519052857E+01  2.620915644E+01  0.00000E+00  9.000E+00
      13     1     3     3     0     0  1.171972477E+01 -2.159253137E+01  4.379183536E+01  5.021280083E+01  1.056583668E-01  0.00000E+00  9.000E+00
     -13     1     3     3     0     0  3.657139864E-01  4.958624400E+00  2.119130274E-01  4.977727743E+00  1.056583668E-01  0.00000E+00  9.000E+00
      21     1     1     2   511   501 -1.208543875E+01  1.663390697E+01  4.291524871E+01  4.758637686E+01  6.743495762E-07  0.00000E+00  9.000E+00
#pdf   3 -3 0.60034438E-02 0.67704718E-03 0.26209156E+02 0.54845555E+00 0.12560353E+01
#rwgt            1           8   149.41777824706566         54217137    18497567           0
</event>
<event>
      6  10013  3.31628E+03  3.16756E+01 -1.00000E+00  1.51384E-01
       1    -1     0     0   501     0  0.000000000E+00  0.000000000E+00  1.961992475E+02  1.961992475E+02  0.000000000E+00  0.00000E+00  9.000E+00
      21    -1     0     0   511   501  0.000000000E+00  0.000000000E+00 -2.285304740E+01  2.285304740E+01  0.000000000E+00  0.00000E+00  9.000E+00
      23     2     1     2     0     0 -1.095613695E+01 -2.972049416E+01  1.567405525E+02  1.832878958E+02  8.957403211E+01  0.00000E+00  9.000E+00
      13     1     3     3     0     0  1.222474980E+01  1.688586387E+01  1.141304797E+02  1.160187678E+02  1.056583668E-01  0.00000E+00  9.000E+00
     -13     1     3     3     0     0 -2.318088675E+01 -4.660635803E+01  4.261007280E+01  6.726912803E+01  1.056583668E-01  0.00000E+00  9.000E+00
       1     1     1     2   511     0  1.095613695E+01  2.972049416E+01  1.660564753E+01  3.576439906E+01  0.000000000E+00  0.00000E+00  9.000E+00
#pdf   1 -1 0.24659591E-01 0.19252702E-02 0.89574032E+02 0.52613242E+00 0.11179144E+01
#rwgt            1           6   894.35389209349489         54217137    18497658           0
</event>
<event>
      6  10013  3.31628E+03  2.89622E+01 -1.00000E+00  1.54074E-01
      21    -1     0     0   501   511  0.000000000E+00  0.000000000E+00  9.129675655E+01  9.129675655E+01  0.000000000E+00  0.00000E+00  9.000E+00
      -4    -1     0     0     0   501  0.000000000E+00  0.000000000E+00 -4.585982060E+01  4.585982060E+01  0.000000000E+00  0.00000E+00  9.000E+00
      23     2     1     2     0     0 -1.684411467E+01 -2.356021761E+01  1.803192046E+01  9.728374271E+01  9.110525994E+01  0.00000E+00  9.000E+00
      13     1     3     3     0     0 -6.471609250E+00 -3.790101169E+01 -2.826372051E+01  4.772019986E+01  1.056583668E-01  0.00000E+00  9.000E+00
     -13     1     3     3     0     0 -1.037250542E+01  1.434079409E+01  4.629564097E+01  4.956354286E+01  1.056583668E-01  0.00000E+00  9.000E+00
      -4     1     1     2     0   511  1.684411467E+01  2.356021761E+01  2.740501549E+01  3.987283445E+01  0.000000000E+00  0.00000E+00  9.000E+00
#pdf   4 -4 0.84535596E-02 0.58097919E-02 0.91105260E+02 0.38986048E+00 0.48949983E+00
#rwgt            1           9   156.09269133151608         54217137    18497685           0
</event>
<event>
      6  10013  3.31628E+03  1.48861E+00 -1.00000E+00  4.46958E-01
       2    -1     0     0   511     0  0.000000000E+00  0.000000000E+00  1.531672859E+03  1.531672859E+03  0.000000000E+00  0.00000E+00  9.000E+00
      -2    -1     0     0     0   501  0.000000000E+00  0.000000000E+00 -1.143221442E-01  1.143221442E-01  0.000000000E+00  0.00000E+00  9.000E+00
      23     2     1     2     0     0 -1.040247688E+00  1.064823436E+00  1.433890301E+03  1.434107602E+03  2.491990587E+01  0.00000E+00  9.000E+00
      13     1     3     3     0     0  3.072701956E+00  6.363054355E+00  1.246808468E+02  1.248809621E+02  1.056583668E-01  0.00000E+00  9.000E+00
     -13     1     3     3     0     0 -4.112949644E+00 -5.298230919E+00  1.309209455E+03  1.309226640E+03  1.056583668E-01  0.00000E+00  9.000E+00
      21     1     1     2   511   501  1.040247688E+00 -1.064823436E+00  9.766823550E+01  9.767957919E+01  1.348699152E-06  0.00000E+00  9.000E+00
#pdf   2 -2 0.22022266E+00 0.16685687E-04 0.24919906E+02 0.51439779E+00 0.40732005E+01
#rwgt            1           7   3470.2266473764703         54217137    18497770           0
</event>
<event>
      6  10013  3.31628E+03  1.22236E+01 -1.00000E+00  1.86136E-01
       1    -1     0     0   511     0  0.000000000E+00  0.000000000E+00  6.888046230E+02  6.888046230E+02  0.000000000E+00  0.00000E+00  9.000E+00
      -1    -1     0     0     0   501  0.000000000E+00  0.000000000E+00 -1.042313695E+01  1.042313695E+01  0.000000000E+00  0.00000E+00  9.000E+00
      23     2     1     2     0     0  5.900232174E-01 -1.220934794E+01  1.892961757E+02  2.099897226E+02  9.007344332E+01  0.00000E+00  9.000E+00
      13     1     3     3     0     0  4.316432208E+01 -2.007123894E+01  9.983901344E+01  1.106067498E+02  1.056583668E-01  0.00000E+00  9.000E+00
     -13     1     3     3     0     0 -4.257429887E+01  7.861891001E+00  8.945716222E+01  9.938297284E+01  1.056583668E-01  0.00000E+00  9.000E+00
      21     1     1     2   511   501 -5.900232174E-01  1.220934794E+01  4.890853104E+02  4.892380373E+02  5.394796609E-06  0.00000E+00  9.000E+00
#pdf   1 -1 0.30435324E-01 0.15773530E-02 0.90073443E+02 0.50002650E+00 0.12130783E+01
#rwgt            1           6   745.46790598700625         54217137    18497896           0
</event>
<event>
      6  10013  3.31628E+03  1.43038E+01 -1.00000E+00  1.79302E-01
       2    -1     0     0   501     0  0.000000000E+00  0.000000000E+00  1.849085521E+03  1.849085521E+03  0.000000000E+00  0.00000E+00  9.000E+00
      21    -1     0     0   511   501  0.000000000E+00  0.000000000E+00 -2.489157242E+00  2.489157242E+00  0.000000000E+00  0.00000E+00  9.000E+00
      23     2     1     2     0     0  1.225373988E+01  7.378619443E+00  1.790145532E+03  1.793339856E+03  1.060293058E+02  0.00000E+00  9.000E+00
      13     1     3     3     0     0  5.936920879E+01  2.321380668E+00  1.048444303E+03  1.050126449E+03  1.056583668E-01  0.00000E+00  9.000E+00
     -13     1     3     3     0     0 -4.711546890E+01  5.057238775E+00  7.417012291E+02  7.432134064E+02  1.056583668E-01  0.00000E+00  9.000E+00
       2     1     1     2   511     0 -1.225373988E+01 -7.378619443E+00  5.645083201E+01  5.823482292E+01  0.000000000E+00  0.00000E+00  9.000E+00
#pdf   2 -2 0.27317813E+00 0.24351135E-03 0.10602931E+03 0.37829681E+00 0.25546134E+01
#rwgt            1           7   1881.8996885917829         54217137    18498055           0
</event>
<event>
      6  10013  3.31628E+03  8.76060E+00 -1.00000E+00  2.02581E-01
      21    -1     0     0   501   511  0.000000000E+00  0.000000000E+00  5.626704102E+00  5.626704102E+00  0.000000000E+00  0.00000E+00  9.000E+00
      -1    -1     0     0     0   501  0.000000000E+00  0.000000000E+00 -5.680834629E+01  5.680834629E+01  0.000000000E+00  0.00000E+00  9.000E+00
      23     2     1     2     0     0 -2.070041560E+00  8.512523122E+00 -4.743907041E+01  5.290851033E+01  2.172779193E+01  0.00000E+00  9.000E+00
      13     1     3     3     0     0 -1.191502491E+01  4.584231557E+00 -2.779508070E+01  3.058693630E+01  1.056583668E-01  0.00000E+00  9.000E+00
     -13     1     3     3     0     0  9.844983349E+00  3.928291565E+00 -1.964398971E+01  2.232157403E+01  1.056583668E-01  0.00000E+00  9.000E+00
      -1     1     1     2     0   511  2.070041560E+00 -8.512523122E+00 -3.742571776E+00  9.526540057E+00  0.000000000E+00  0.00000E+00  9.000E+00
#pdf   1 -1 0.39020265E-03 0.71590314E-02 0.21727792E+02 0.15115680E+01 0.54193326E+00
#rwgt            1           6   146.26240277110693         54217137    18498127           0
</event>
<event>
      6  10013  3.31628E+03  3.85944E+00 -1.00000E+00  2.67074E-01
      -3    -1     0     0     0   501  0.000000000E+00  0.000000000E+00  2.171140238E+02  2.171140238E+02  0.000000000E+00  0.00000E+00  9.000E+00
       3    -1     0     0   511     0  0.000000000E+00  0.000000000E+00 -1.027102472E+01  1.027102472E+01  0.000000000E+00  0.00000E+00  9.000E+00
      23     2     1     2     0     0  3.514779568E+00  1.594248981E+00  2.015067210E+02  2.207993694E+02  9.018041714E+01  0.00000E+00  9.000E+00
      13     1     3     3     0     0  1.722421313E-02  2.235355461E+01  1.982387344E+02  1.994950843E+02  1.056583668E-01  0.00000E+00  9.000E+00
     -13     1     3     3     0     0  3.497555355E+00 -2.075930563E+01  3.267986600E+00  2.130428510E+01  1.056583668E-01  0.00000E+00  9.000E+00
      21     1     1     2   511   501 -3.514779568E+00 -1.594248981E+00  5.336278152E+00  6.585679141E+00  5.960464478E-08  0.00000E+00  9.000E+00
#pdf  -3  3 0.32455375E-01 0.14826927E-02 0.90180417E+02 0.22300524E+00 0.11973481E+01
#rwgt            1           3   257.36198848623934         54217137    18498175           0
</event>
<event>
      6  10013  3.31628E+03  3.97605E+00 -1.00000E+00  2.63977E-01
       2    -1     0     0   511     0  0.000000000E+00  0.000000000E+00  3.271617777E+01  3.271617777E+01  0.000000000E+00  0.00000E+00  9.000E+00
      -2    -1     0     0     0   501  0.000000000E+00  0.000000000E+00 -5.056454730E+01  5.056454730E+01  0.000000000E+00  0.00000E+00  9.000E+00
      23     2     1     2     0     0  6.167146440E-01  3.927932373E+00 -3.637269414E+01  6.433449610E+01  5.291640124E+01  0.00000E+00  9.000E+00
      13     1     3     3     0     0 -1.522158859E+01  1.439925502E+01  2.470950856E+00  2.109862711E+01  1.056583668E-01  0.00000E+00  9.000E+00
     -13     1     3     3     0     0  1.583830323E+01 -1.047132264E+01 -3.884364500E+01  4.323586899E+01  1.056583668E-01  0.00000E+00  9.000E+00
      21     1     1     2   511   501 -6.167146440E-01 -3.927932373E+00  1.852432461E+01  1.894622896E+01  0.000000000E+00  0.00000E+00  9.000E+00
#pdf   2 -2 0.21448617E-02 0.77249310E-02 0.52916401E+02 0.10883302E+01 0.56593455E+00
#rwgt            1           7   448.79871440155824         54217137    18498306           0
</event>
<event>
      6  10013  3.31628E+03  3.46250E+01 -1.00000E+00  1.48804E-01
       1    -1     0     0   501     0  0.000000000E+00  0.000000000E+00  1.504840959E+03  1.504840959E+03  0.000000000E+00  0.00000E+00  9.000E+00
      21    -1     0     0   511   501  0.000000000E+00  0.000000000E+00 -3.075781053E+00  3.075781053E+00  0.000000000E+00  0.00000E+00  9.000E+00
      23     2     1     2     0     0 -9.164125955E+00  3.339021224E+01  1.235532094E+03  1.239441522E+03  9.206978228E+01  0.00000E+00  9.000E+00
      13     1     3     3     0     0 -9.395105682E+00 -1.147814545E+01  9.722717276E+02  9.723848720E+02  1.056583668E-01  0.00000E+00  9.000E+00
     -13     1     3     3     0     0  2.309797266E-01  4.486835769E+01  2.632603662E+02  2.670566503E+02  1.056583668E-01  0.00000E+00  9.000E+00
       1     1     1     2   511     0  9.164125955E+00 -3.339021224E+01  2.662330846E+02  2.684752182E+02  0.000000000E+00  0.00000E+00  9.000E+00
#pdf   1 -1 0.17819783E+00 0.28147842E-03 0.92069782E+02 0.25693688E+00 0.23580818E+01
#rwgt            1           6   1439.5588548175408         54217137    18498509           0
</event>
<event>
      6  10013  3.31628E+03  1.43407E+01 -1.00000E+00  1.79194E-01
       3    -1     0     0   501     0  0.000000000E+00  0.000000000E+00  2.101909304E+03  2.101909304E+03  0.000000000E+00  0.00000E+00  9.000E+00
      21    -1     0     0   511   501  0.000000000E+00  0.000000000E+00 -1.359974801E+00  1.359974801E+00  0.000000000E+00  0.00000E+00  9.000E+00
      23     2     1     2     0     0 -1.041493886E+01 -9.858184980E+00  1.748796467E+03  1.751224209E+03  9.105764187E+01  0.00000E+00  9.000E+00
      13     1     3     3     0     0 -3.805940242E+01  2.641878060E+01  8.180543084E+02  8.193652011E+02  1.056583668E-01  0.00000E+00  9.000E+00
     -13     1     3     3     0     0  2.764446356E+01 -3.627696558E+01  9.307421583E+02  9.318590081E+02  1.056583668E-01  0.00000E+00  9.000E+00
       3     1     1     2   511     0  1.041493886E+01  9.858184980E+00  3.517528624E+02  3.520450696E+02  0.000000000E+00  0.00000E+00  9.000E+00
#pdf   3 -3 0.26595432E+00 0.18447565E-03 0.91057642E+02 0.74544125E-02 0.26804339E+01
#rwgt            1           8   30.189001907106199         54217137    18498622           0
</event>
<event>
      6  10013 -3.31628E+03  1.86304E+01 -1.00000E+00  1.68909E-01
      -4    -1     0     0     0   501  0.000000000E+00  0.000000000E+00  2.107709352E+00  2.107709352E+00  0.000000000E+00  0.00000E+00  9.000E+00
      21    -1     0     0   501   511  0.000000000E+00  0.000000000E+00 -6.141630041E+02  6.141630041E+02  0.000000000E+00  0.00000E+00  9.000E+00
      23     2     1     2     0     0  1.862222982E+01 -5.524856252E-01 -2.454407432E+02  2.491830916E+02  3.878094959E+01  0.00000E+00  9.000E+00
      13     1     3     3     0     0 -5.537245868E+00 -7.996120826E+00 -1.909195188E+01  2.142691836E+01  1.056583668E-01  0.00000E+00  9.000E+00
     -13     1     3     3     0     0  2.415947569E+01  7.443635201E+00 -2.263487913E+02  2.277561733E+02  1.056583668E-01  0.00000E+00  9.000E+00
      -4     1     1     2     0   511 -1.862222982E+01  5.524856252E-01 -3.666145515E+02  3.670876218E+02  0.000000000E+00  0.00000E+00  9.000E+00
#pdf  -4  4 0.25948346E-03 0.34295765E-01 0.38780950E+02 0.16161625E+01 0.11851772E+00
#rwgt            1           2  -691.01725054480335         54217137    18498691           0
</event>
<event>
      6  10013  3.31628E+03  5.63120E+00 -1.00000E+00  2.29756E-01
       2    -1     0     0   511     0  0.000000000E+00  0.000000000E+00  2.061492665E+03  2.061492665E+03  0.000000000E+00  0.00000E+00  9.000E+00
      -2    -1     0     0     0   501  0.000000000E+00  0.000000000E+00 -3.121430437E-01  3.121430437E-01  0.000000000E+00  0.00000E+00  9.000E+00
      23     2     1     2     0     0 -3.669738625E+00 -4.271226794E+00  5.858990806E+02  5.865126195E+02  2.622231546E+01  0.00000E+00  9.000E+00
      13     1     3     3     0     0 -9.671312204E+00  6.159678478E+00  1.462445138E+02  1.466933703E+02  1.056583668E-01  0.00000E+00  9.000E+00
     -13     1     3     3     0     0  6.001573580E+00 -1.043090527E+01  4.396545668E+02  4.398192492E+02  1.056583668E-01  0.00000E+00  9.000E+00
      21     1     1     2   511   501  3.669738625E+00  4.271226794E+00  1.475281441E+03  1.475292188E+03  3.051757812E-05  0.00000E+00  9.000E+00
#pdf   2 -2 0.88175251E-01 0.46143302E-04 0.26222315E+02 0.62590680E+00 0.30641827E+01
#rwgt            1           7   2431.5407974353029         54217137    18498802           0
</event>
<event>
      6  10013  3.31628E+03  5.29105E+01 -1.00000E+00  1.37660E-01
       1    -1     0     0   501     0  0.000000000E+00  0.000000000E+00  2.161718450E+01  2.161718450E+01  0.000000000E+00  0.00000E+00  9.000E+00
      21    -1     0     0   511   501  0.000000000E+00  0.000000000E+00 -3.056632298E+02  3.056632298E+02  0.000000000E+00  0.00000E+00  9.000E+00
      23     2     1     2     0     0 -5.037433411E+01  1.618486906E+01 -2.096476599E+02  2.359861469E+02  9.453992104E+01  0.00000E+00  9.000E+00
      13     1     3     3     0     0  1.855618915E+01 -2.096993519E+01 -7.720308854E+01  8.212428619E+01  1.056583668E-01  0.00000E+00  9.000E+00
     -13     1     3     3     0     0 -6.893052326E+01  3.715480425E+01 -1.324445714E+02  1.538618607E+02  1.056583668E-01  0.00000E+00  9.000E+00
       1     1     1     2   511     0  5.037433411E+01 -1.618486906E+01 -7.439838536E+01  9.129426744E+01  0.000000000E+00  0.00000E+00  9.000E+00
#pdf   1 -1 0.17679836E-02 0.29913383E-01 0.94539921E+02 0.12261958E+01 0.30074545E+00
#rwgt            1           6   419.26840785875231         54217137    18498874           0
</event>
<event>
      5  10013  3.31628E+03  8.94427E-01 -1.00000E+00  7.37569E-01
       1    -1     0     0   501     0  0.000000000E+00  0.000000000E+00  1.654171004E+02  1.654171004E+02  0.000000000E+00  0.00000E+00  9.000E+00
      -1    -1     0     0     0   501  0.000000000E+00  0.000000000E+00 -6.951652722E-01  6.951652722E-01  0.000000000E+00  0.00000E+00  9.000E+00
      23     2     1     2     0     0  0.000000000E+00  0.000000000E+00  1.647219351E+02  1.661122657E+02  2.144688543E+01  0.00000E+00  9.000E+00
      13     1     3     3     0     0 -5.664763132E-02 -7.861687851E+00  2.588316320E+01  2.705103779E+01  1.056583668E-01  0.00000E+00  9.000E+00
     -13     1     3     3     0     0  5.664763132E-02  7.861687851E+00  1.388387719E+02  1.390612279E+02  1.056583668E-01  0.00000E+00  9.000E+00
#pdf   1 -1 0.25448785E-01 0.10694850E-03 0.21446885E+02 0.49690112E+00 0.22170579E+01
#rwgt            1           6   325.25063103628952         54217137    18498903           0
</event>
<event>
      6  10013  3.31628E+03  3.77132E+00 -1.00000E+00  2.69530E-01
      -2    -1     0     0     0   501  0.000000000E+00  0.000000000E+00  6.760596199E+00  6.760596199E+00  0.000000000E+00  0.00000E+00  9.000E+00
       2    -1     0     0   511     0  0.000000000E+00  0.000000000E+00 -1.175859949E+02  1.175859949E+02  0.000000000E+00  0.00000E+00  9.000E+00
      23     2     1     2     0     0 -2.329466202E+00 -2.965884489E+00 -2.203016579E+01  3.547130617E+01  2.754382822E+01  0.00000E+00  9.000E+00
      13     1     3     3     0     0 -2.051668889E+00  3.914681226E+00 -2.675601916E+01  2.711880896E+01  1.056583668E-01  0.00000E+00  9.000E+00
     -13     1     3     3     0     0 -2.777973124E-01 -6.880565715E+00  4.725853369E+00  8.352497212E+00  1.056583668E-01  0.00000E+00  9.000E+00
      21     1     1     2   511   501  2.329466202E+00  2.965884489E+00 -8.879523292E+01  8.887528494E+01  0.000000000E+00  0.00000E+00  9.000E+00
#pdf  -2  2 0.10243763E-02 0.43823027E-02 0.27543828E+02 0.11414593E+01 0.81405913E+00
#rwgt            1           4   839.96729001911922         54217137    18499092           0
</event>
<event>
      6  10013  3.31628E+03  1.80155E+01 -1.00000E+00  1.70159E-01
       2    -1     0     0   501     0  0.000000000E+00  0.000000000E+00  1.010929156E+03  1.010929156E+03  0.000000000E+00  0.00000E+00  9.000E+00
      21    -1     0     0   511   501  0.000000000E+00  0.000000000E+00 -4.669877654E+00  4.669877654E+00  0.000000000E+00  0.00000E+00  9.000E+00
      23     2     1     2     0     0  1.797632677E+01  1.187961713E+00  9.754003017E+02  9.798661913E+02  9.169211944E+01  0.00000E+00  9.000E+00
      13     1     3     3     0     0  2.967936987E+01 -4.014136030E+01  4.700208828E+02  4.726646117E+02  1.056583668E-01  0.00000E+00  9.000E+00
     -13     1     3     3     0     0 -1.170304309E+01  4.132932201E+01  5.053794189E+02  5.072015796E+02  1.056583668E-01  0.00000E+00  9.000E+00
       2     1     1     2   511     0 -1.797632677E+01 -1.187961713E+00  3.085897624E+01  3.573284192E+01  0.000000000E+00  0.00000E+00  9.000E+00
#pdf   2 -2 0.14758345E+00 0.33708519E-03 0.91692119E+02 0.55694614E+00 0.21992688E+01
#rwgt            1           7   1569.7088340533412         54217137    18499255           0
</event>
<event>
      6  10013  3.31628E+03  9.90573E+00 -1.00000E+00  1.96175E-01
      -3    -1     0     0     0   501  0.000000000E+00  0.000000000E+00  3.989668109E+01  3.989668109E+01  0.000000000E+00  0.00000E+00  9.000E+00
       3    -1     0     0   511     0  0.000000000E+00  0.000000000E+00 -6.991481982E+01  6.991481982E+01  0.000000000E+00  0.00000E+00  9.000E+00
      23     2     1     2     0     0  6.584330491E+00 -7.400681024E+00 -1.523493104E+01  9.201636908E+01  9.020413276E+01  0.00000E+00  9.000E+00
      13     1     3     3     0     0  1.618920891E+01 -8.901350983E+00 -5.137262058E+01  5.459378942E+01  1.056583668E-01  0.00000E+00  9.000E+00
     -13     1     3     3     0     0 -9.604878415E+00  1.500669959E+00  3.613768954E+01  3.742257966E+01  1.056583668E-01  0.00000E+00  9.000E+00
      21     1     1     2   511   501 -6.584330491E+00  7.400681024E+00 -1.478320769E+01  1.779513184E+01  0.000000000E+00  0.00000E+00  9.000E+00
#pdf  -3  3 0.58709708E-02 0.82008005E-02 0.90204133E+02 0.64532948E+00 0.54396029E+00
#rwgt            1           3   521.71930150241781         54217137    18499345           0
</event>
<event>
      6  10013  3.31628E+03  6.79959E+00 -1.00000E+00  2.17280E-01
      21    -1     0     0   511   501  0.000000000E+00  0.000000000E+00  9.546950207E-01  9.546950207E-01  0.000000000E+00  0.00000E+00  9.000E+00
       2    -1     0     0   501     0  0.000000000E+00  0.000000000E+00 -2.437021820E+02  2.437021820E+02  0.000000000E+00  0.00000E+00  9.000E+00
      23     2     1     2     0     0  4.175457370E+00 -5.366560632E+00 -1.344544201E+02  1.361505512E+02  2.031617779E+01  0.00000E+00  9.000E+00
      13     1     3     3     0     0  1.004430516E+01 -1.476736513E-01 -1.101803237E+02  1.106373570E+02  1.056583668E-01  0.00000E+00  9.000E+00
     -13     1     3     3     0     0 -5.868847786E+00 -5.218886981E+00 -2.427409638E+01  2.551319413E+01  1.056583668E-01  0.00000E+00  9.000E+00
       2     1     1     2   511     0 -4.175457370E+00  5.366560632E+00 -1.082930669E+02  1.085063259E+02  0.000000000E+00  0.00000E+00  9.000E+00
#pdf  -2  2 0.12372586E-03 0.19739531E-01 0.20316178E+02 0.20787989E+01 0.63077587E+00
#rwgt            1           4   1260.3520216115655         54217137    18499374           0
</event>
<event>
      6  10013  3.31628E+03  4.36146E+00 -1.00000E+00  2.54820E-01
      -3    -1     0     0     0   511  0.000000000E+00  0.000000000E+00  1.132911513E+02  1.132911513E+02  0.000000000E+00  0.00000E+00  9.000E+00
       3    -1     0     0   501     0  0.000000000E+00  0.000000000E+00 -2.004517523E+01  2.004517523E+01  0.000000000E+00  0.00000E+00  9.000E+00
      23     2     1     2     0     0  3.392956415E-01  4.348241314E+00  8.150223838E+01  1.208088488E+02  8.906818039E+01  0.00000E+00  9.000E+00
      13     1     3     3     0     0 -2.279613945E+01  4.255306543E+00 -1.084992673E+01  2.560280612E+01  1.056583668E-01  0.00000E+00  9.000E+00
     -13     1     3     3     0     0  2.313543509E+01  9.293477114E-02  9.235216512E+01  9.520604266E+01  1.056583668E-01  0.00000E+00  9.000E+00
      21     1     1     2   501   511 -3.392956415E-01 -4.348241314E+00  1.174373764E+01  1.252747771E+01  1.685873940E-07  0.00000E+00  9.000E+00
#pdf  -3  3 0.15543767E-01 0.30199669E-02 0.89068180E+02 0.37684067E+00 0.88033212E+00
#rwgt            1           3   474.18584571088945         54217137    18499452           0
</event>
<event>
      6  10013  3.31628E+03  1.56084E+01 -1.00000E+00  1.75725E-01
       1    -1     0     0   501     0  0.000000000E+00  0.000000000E+00  8.000902569E+02  8.000902569E+02  0.000000000E+00  0.00000E+00  9.000E+00
      21    -1     0     0   511   501  0.000000000E+00  0.000000000E+00 -6.514870476E+00  6.514870476E+00  0.000000000E+00  0.00000E+00  9.000E+00
      23     2     1     2     0     0 -1.503530885E+01  4.190800915E+00  7.803418858E+02  7.861417732E+02  9.403087565E+01  0.00000E+00  9.000E+00
      13     1     3     3     0     0  3.673108112E+00  2.849643219E+01  7.788873309E+01  8.301930063E+01  1.056583668E-01  0.00000E+00  9.000E+00
     -13     1     3     3     0     0 -1.870841697E+01 -2.430563128E+01  7.024531527E+02  7.031224726E+02  1.056583668E-01  0.00000E+00  9.000E+00
       1     1     1     2   511     0  1.503530885E+01 -4.190800915E+00  1.323350069E+01  2.046335420E+01  0.000000000E+00  0.00000E+00  9.000E+00
#pdf   1 -1 0.11887219E+00 0.44012291E-03 0.94030876E+02 0.33407960E+00 0.20058212E+01
#rwgt            1           6   944.86620164451108         54217137    18499616           0
</event>
<event>
      6  10013  3.31628E+03  1.41584E+01 -1.00000E+00  1.79730E-01
       4    -1     0     0   501     0  0.000000000E+00  0.000000000E+00  1.811268374E+02  1.811268374E+02  0.000000000E+00  0.00000E+00  9.000E+00
      21    -1     0     0   511   501  0.000000000E+00  0.000000000E+00 -1.559669665E+01  1.559669665E+01  0.000000000E+00  0.00000E+00  9.000E+00
      23     2     1     2     0     0 -7.590469183E+00 -1.195176591E+01  1.425552599E+02  1.697364060E+02  9.103837356E+01  0.00000E+00  9.000E+00
      13     1     3     3     0     0  2.285471997E+01  3.075684025E+01  7.488728788E+01  8.412156974E+01  1.056583668E-01  0.00000E+00  9.000E+00
     -13     1     3     3     0     0 -3.044518915E+01 -4.270860616E+01  6.766797200E+01  8.561483622E+01  1.056583668E-01  0.00000E+00  9.000E+00
       4     1     1     2   511     0  7.590469183E+00  1.195176591E+01  2.297488090E+01  2.698712811E+01  0.000000000E+00  0.00000E+00  9.000E+00
#pdf   4 -4 0.23737089E-01 0.20660214E-02 0.91038374E+02 0.18111494E+00 0.84345911E+00
#rwgt            1           9   197.06963311749479         54217137    18499653           0
</event>
<event>
      6  10013  3.31628E+03  3.22431E+01 -1.00000E+00  1.50862E-01
      21    -1     0     0   511   501  0.000000000E+00  0.000000000E+00  2.782621771E+00  2.782621771E+00  0.000000000E+00  0.00000E+00  9.000E+00
       2    -1     0     0   501     0  0.000000000E+00  0.000000000E+00 -1.352371238E+03  1.352371238E+03  0.000000000E+00  0.00000E+00  9.000E+00
      23     2     1     2     0     0 -2.623716369E+01  1.874103027E+01 -1.247014649E+03  1.247631613E+03  2.234927098E+01  0.00000E+00  9.000E+00
      13     1     3     3     0     0 -9.949736660E+00  1.490455481E+01 -3.478938307E+02  3.483550941E+02  1.056583668E-01  0.00000E+00  9.000E+00
     -13     1     3     3     0     0 -1.628742703E+01  3.836475460E+00 -8.991208187E+02  8.992765184E+02  1.056583668E-01  0.00000E+00  9.000E+00
       2     1     1     2   511     0  2.623716369E+01 -1.874103027E+01 -1.025739673E+02  1.075222476E+02  0.000000000E+00  0.00000E+00  9.000E+00
#pdf  -2  2 0.27036169E-04 0.10931880E+00 0.22349271E+02 0.33899510E+01 0.62162437E+00
#rwgt            1           4   3023.6585740231972         54217137    18499821           0
</event>
<event>
      6  10013  3.31628E+03  3.60988E+00 -1.00000E+00  2.74316E-01
      -2    -1     0     0     0   511  0.000000000E+00  0.000000000E+00  4.636886410E+00  4.636886410E+00  0.000000000E+00  0.00000E+00  9.000E+00
       2    -1     0     0   501     0  0.000000000E+00  0.000000000E+00 -7.594556850E+02  7.594556850E+02  0.000000000E+00  0.00000E+00  9.000E+00
      23     2     1     2     0     0  3.273934247E+00  1.520720208E+00 -7.549455964E+02  7.604804649E+02  9.151312906E+01  0.00000E+00  9.000E+00
      13     1     3     3     0     0 -4.003915375E+01 -9.426173373E+00 -4.965878286E+02  4.982885401E+02  1.056583668E-01  0.00000E+00  9.000E+00
     -13     1     3     3     0     0  4.331308800E+01  1.094689358E+01 -2.583577678E+02  2.621919248E+02  1.056583668E-01  0.00000E+00  9.000E+00
      21     1     1     2   501   511 -3.273934247E+00 -1.520720208E+00  1.267978217E-01  3.612106462E+00  3.201583058E-07  0.00000E+00  9.000E+00
#pdf  -2  2 0.42542826E-03 0.11648065E+00 0.91513129E+02 0.20153149E+01 0.58856510E+00
#rwgt            1           4   1366.0235981585251         54217137    18499900           0
</event>
<event>
      6  10013  3.31628E+03  4.15960E+01 -1.00000E+00  1.43763E-01
      -3    -1     0     0     0   501  0.000000000E+00  0.000000000E+00  6.916247457E+01  6.916247457E+01  0.000000000E+00  0.00000E+00  9.000E+00
       3    -1     0     0   511     0  0.000000000E+00  0.000000000E+00 -8.342272834E+01  8.342272834E+01  0.000000000E+00  0.00000E+00  9.000E+00
      23     2     1     2     0     0 -3.625505554E+01 -2.039115612E+01  1.877408178E+01  9.946745045E+01  8.838031032E+01  0.00000E+00  9.000E+00
      13     1     3     3     0     0 -1.104741449E+01  1.810423155E+01  4.264633916E+01  4.762908748E+01  1.056583668E-01  0.00000E+00  9.000E+00
     -13     1     3     3     0     0 -2.520764105E+01 -3.849538767E+01 -2.387225738E+01  5.183836297E+01  1.056583668E-01  0.00000E+00  9.000E+00
      21     1     1     2   511   501  3.625505554E+01  2.039115612E+01 -3.303433555E+01  5.311775245E+01  6.743495762E-07  0.00000E+00  9.000E+00
#pdf  -3  3 0.82295914E-02 0.56162453E-02 0.88380310E+02 0.54198902E+00 0.65822279E+00
#rwgt            1           3   349.80200599695240         54217137    18500153           0
</event>
<event>
      6  10013  3.31628E+03  6.11680E+00 -1.00000E+00  2.24102E-01
      21    -1     0     0   511   501  0.000000000E+00  0.000000000E+00  3.076944154E+00  3.076944154E+00  0.000000000E+00  0.00000E+00  9.000E+00
       2    -1     0     0   501     0  0.000000000E+00  0.000000000E+00 -8.298257982E+02  8.298257982E+02  0.000000000E+00  0.00000E+00  9.000E+00
      23     2     1     2     0     0 -3.354621738E+00  5.114857318E+00 -8.057102353E+02  8.109929561E+02  9.221266951E+01  0.00000E+00  9.000E+00
      13     1     3     3     0     0  4.160443508E+01  1.822396513E+01 -4.207959318E+02  4.232402028E+02  1.056583668E-01  0.00000E+00  9.000E+00
     -13     1     3     3     0     0 -4.495905682E+01 -1.310910781E+01 -3.849143035E+02  3.877527533E+02  1.056583668E-01  0.00000E+00  9.000E+00
       2     1     1     2   511     0  3.354621738E+00 -5.114857318E+00 -2.103861874E+01  2.190978619E+01  0.000000000E+00  0.00000E+00  9.000E+00
#pdf  -2  2 0.40547205E-03 0.12408908E+00 0.92212670E+02 0.20550560E+01 0.58134461E+00
#rwgt            1           4   1446.0463934384322         54217137    18500180           0
</event>
<event>
      6  10013  3.31628E+03  6.25174E+00 -1.00000E+00  2.22659E-01
       1    -1     0     0   501     0  0.000000000E+00  0.000000000E+00  2.495039848E+02  2.495039848E+02  0.000000000E+00  0.00000E+00  9.000E+00
      21    -1     0     0   511   501  0.000000000E+00  0.000000000E+00 -3.786645645E+00  3.786645645E+00  0.000000000E+00  0.00000E+00  9.000E+00
      23     2     1     2     0     0 -3.854538568E-01  6.239846670E+00  2.223383552E+02  2.290901934E+02  5.485333418E+01  0.00000E+00  9.000E+00
      13     1     3     3     0     0  1.788685988E+01  1.882692146E+01  6.192996882E+01  6.715448555E+01  1.056583668E-01  0.00000E+00  9.000E+00
     -13     1     3     3     0     0 -1.827231373E+01 -1.258707479E+01  1.604083863E+02  1.619357078E+02  1.056583668E-01  0.00000E+00  9.000E+00
       1     1     1     2   511     0  3.854538568E-01 -6.239846670E+00  2.337898404E+01  2.420043710E+01  0.000000000E+00  0.00000E+00  9.000E+00
#pdf   1 -1 0.34501913E-01 0.51603146E-03 0.54853334E+02 0.48228293E+00 0.16991810E+01
#rwgt            1           6   462.91346104985956         54217137    18500304           0
</event>
<event>
      6  10013  3.31628E+03  4.16862E+00 -1.00000E+00  2.59211E-01
       1    -1     0     0   501     0  0.000000000E+00  0.000000000E+00  5.171925345E+01  5.171925345E+01  0.000000000E+00  0.00000E+00  9.000E+00
      -1    -1     0     0     0   511  0.000000000E+00  0.000000000E+00 -4.630480941E+01  4.630480941E+01  0.000000000E+00  0.00000E+00  9.000E+00
      23     2     1     2     0     0 -1.373268302E+00  3.935930708E+00  9.775062422E+00  9.199145073E+01  9.137558616E+01  0.00000E+00  9.000E+00
      13     1     3     3     0     0  1.746028258E+01  2.892563941E+00  4.702094357E+01  5.024150368E+01  1.056583668E-01  0.00000E+00  9.000E+00
     -13     1     3     3     0     0 -1.883355089E+01  1.043366767E+00 -3.724588115E+01  4.174994706E+01  1.056583668E-01  0.00000E+00  9.000E+00
      21     1     1     2   501   511  1.373268302E+00 -3.935930708E+00 -4.360618385E+00  6.032612126E+00  5.960464478E-08  0.00000E+00  9.000E+00
#pdf   1 -1 0.78200598E-02 0.63177665E-02 0.91375586E+02 0.72960028E+00 0.67169846E+00
#rwgt            1           6   708.79047974526225         54217137    18500407           0
</event>
<event>
      6  10013  3.31628E+03  7.68323E+00 -1.00000E+00  2.09924E-01
       5    -1     0     0   501     0  0.000000000E+00  0.000000000E+00  3.174702180E+01  3.174702180E+01  0.000000000E+00  0.00000E+00  9.000E+00
      21    -1     0     0   511   501  0.000000000E+00  0.000000000E+00 -1.861753241E+02  1.861753241E+02  0.000000000E+00  0.00000E+00  9.000E+00
      23     2     1     2     0     0 -7.147222272E+00 -2.819440431E+00 -3.644931415E+01  9.969344218E+01  9.247268722E+01  0.00000E+00  9.000E+00
      13     1     3     3     0     0  5.364637061E+00  4.390513915E+01 -2.058693111E+01  4.878804639E+01  1.056583668E-01  0.00000E+00  9.000E+00
     -13     1     3     3     0     0 -1.251185933E+01 -4.672457958E+01 -1.586238304E+01  5.090539579E+01  1.056583668E-01  0.00000E+00  9.000E+00
       5     1     1     2   511     0  7.147222272E+00  2.819440431E+00 -1.179789882E+02  1.182289038E+02  0.000000000E+00  0.00000E+00  9.000E+00
#pdf   5 -5 0.48482272E-02 0.10436558E-01 0.92472687E+02 0.36044785E+00 0.21454657E+00
#rwgt            1          10   120.07781420766020         54217137    18500526           0
</event>
<event>
      6  10013  3.31628E+03  2.81032E+00 -1.00000E+00  3.05601E-01
       1    -1     0     0   501     0  0.000000000E+00  0.000000000E+00  4.203467810E+02  4.203467810E+02  0.000000000E+00  0.00000E+00  9.000E+00
      21    -1     0     0   511   501  0.000000000E+00  0.000000000E+00 -6.015234201E+00  6.015234201E+00  0.000000000E+00  0.00000E+00  9.000E+00
      23     2     1     2     0     0 -2.054306873E+00  1.917737148E+00  4.135256109E+02  4.234384172E+02  9.104265157E+01  0.00000E+00  9.000E+00
      13     1     3     3     0     0  2.490344445E+01  3.421621183E+01  1.276111071E+02  1.344452919E+02  1.056583668E-01  0.00000E+00  9.000E+00
     -13     1     3     3     0     0 -2.695775132E+01 -3.229847468E+01  2.859145038E+02  2.889931253E+02  1.056583668E-01  0.00000E+00  9.000E+00
       1     1     1     2   511     0  2.054306873E+00 -1.917737148E+00  8.059358862E-01  2.923597981E+00  0.000000000E+00  0.00000E+00  9.000E+00
#pdf   1 -1 0.64351197E-01 0.76216054E-03 0.91042652E+02 0.41688814E+00 0.16181882E+01
#rwgt            1           6   756.04815520750537         54217137    18501069           0
</event>
<event>
      6  10013  3.31628E+03  9.94440E+00 -1.00000E+00  1.95979E-01
      21    -1     0     0   511   501  0.000000000E+00  0.000000000E+00  7.476214932E-01  7.476214932E-01  0.000000000E+00  0.00000E+00  9.000E+00
       2    -1     0     0   501     0  0.000000000E+00  0.000000000E+00 -3.995179564E+03  3.995179564E+03  0.000000000E+00  0.00000E+00  9.000E+00
      23     2     1     2     0     0  8.237032254E-01 -9.910232204E+00 -3.864193267E+03  3.865309408E+03  9.234892495E+01  0.00000E+00  9.000E+00
      13     1     3     3     0     0  3.723609431E+00 -3.359659716E+01 -3.566825795E+03  3.566985963E+03  1.056583668E-01  0.00000E+00  9.000E+00
     -13     1     3     3     0     0 -2.899906206E+00  2.368636495E+01 -2.973674720E+02  2.983234451E+02  1.056583668E-01  0.00000E+00  9.000E+00
       2     1     1     2   511     0 -8.237032254E-01  9.910232204E+00 -1.302386747E+02  1.306177767E+02  0.000000000E+00  0.00000E+00  9.000E+00
#pdf  -2  2 0.85363508E-04 0.59115958E+00 0.92348925E+02 0.36127820E+01 0.49728751E-01
#rwgt            1           4   1232.9332727759243         54217137    18501155           0
</event>
<event>
      6  10013  3.31628E+03  8.12269E+01 -1.00000E+00  1.28006E-01
       4    -1     0     0   511     0  0.000000000E+00  0.000000000E+00  9.676930742E+01  9.676930742E+01  0.000000000E+00  0.00000E+00  9.000E+00
      -4    -1     0     0     0   501  0.000000000E+00  0.000000000E+00 -1.087851326E+02  1.087851326E+02  0.000000000E+00  0.00000E+00  9.000E+00
      23     2     1     2     0     0 -2.761171751E+01 -7.638980306E+01 -3.334645974E+01  1.215734604E+02  8.408514105E+01  0.00000E+00  9.000E+00
      13     1     3     3     0     0 -5.398534487E+01 -2.594944426E+01 -1.467250098E+01  6.166915410E+01  1.056583668E-01  0.00000E+00  9.000E+00
     -13     1     3     3     0     0  2.637362736E+01 -5.044035880E+01 -1.867395877E+01  5.990430632E+01  1.056583668E-01  0.00000E+00  9.000E+00
      21     1     1     2   511   501  2.761171751E+01  7.638980306E+01  2.133063461E+01  8.398097956E+01  1.862108630E-06  0.00000E+00  9.000E+00
#pdf   4 -4 0.48811598E-02 0.85709464E-02 0.84085141E+02 0.53408664E+00 0.38243726E+00
#rwgt            1           9   237.28297537052529         54217137    18501264           0
</event>
<event>
      6  10013  3.31628E+03  7.36569E+00 -1.00000E+00  2.12405E-01
      -2    -1     0     0     0   501  0.000000000E+00  0.000000000E+00  5.244372512E+00  5.244372512E+00  0.000000000E+00  0.00000E+00  9.000E+00
       2    -1     0     0   511     0  0.000000000E+00  0.000000000E+00 -1.676111202E+03  1.676111202E+03  0.000000000E+00  0.00000E+00  9.000E+00
      23     2     1     2     0     0  4.908197989E+00 -5.492088822E+00 -5.471737611E+02  5.576383657E+02  1.072714716E+02  0.00000E+00  9.000E+00
      13     1     3     3     0     0  4.157116474E+01 -3.674709199E+01 -2.176248942E+02  2.245865452E+02  1.056583668E-01  0.00000E+00  9.000E+00
     -13     1     3     3     0     0 -3.666296675E+01  3.125500317E+01 -3.295488669E+02  3.330518205E+02  1.056583668E-01  0.00000E+00  9.000E+00
      21     1     1     2   511   501 -4.908197989E+00  5.492088822E+00 -1.123693069E+03  1.123717209E+03  1.525878906E-05  0.00000E+00  9.000E+00
#pdf  -2  2 0.80307865E-03 0.84785911E-01 0.10727147E+03 0.16225148E+01 0.61117003E+00
#rwgt            1           4   824.59142893526030         54217137    18501311           0
</event>
<event>
      6  10013  3.31628E+03  4.87598E+00 -1.00000E+00  2.44632E-01
       4    -1     0     0   501     0  0.000000000E+00  0.000000000E+00  2.328631096E+01  2.328631096E+01  0.000000000E+00  0.00000E+00  9.000E+00
      21    -1     0     0   511   501  0.000000000E+00  0.000000000E+00 -1.010484737E+02  1.010484737E+02  0.000000000E+00  0.00000E+00  9.000E+00
      23     2     1     2     0     0  3.267194327E+00  3.619484517E+00 -6.983512964E+01  1.150281698E+02  9.127299317E+01  0.00000E+00  9.000E+00
      13     1     3     3     0     0  3.278252781E+01 -8.722886787E+00 -7.528512903E+01  8.257508523E+01  1.056583668E-01  0.00000E+00  9.000E+00
     -13     1     3     3     0     0 -2.951533348E+01  1.234237130E+01  5.449999387E+00  3.245308455E+01  1.056583668E-01  0.00000E+00  9.000E+00
       4     1     1     2   511     0 -3.267194327E+00 -3.619484517E+00 -7.927033140E+00  9.306614924E+00  0.000000000E+00  0.00000E+00  9.000E+00
#pdf   4 -4 0.34714376E-02 0.14200005E-01 0.91272993E+02 0.65029643E+00 0.27362676E+00
#rwgt            1           9   145.89778449984345         54217137    18501470           0
</event>
<event>
      6  10013  3.31628E+03  1.61721E+01 -1.00000E+00  1.74314E-01
      21    -1     0     0   511   501  0.000000000E+00  0.000000000E+00  4.121143634E+02  4.121143634E+02  0.000000000E+00  0.00000E+00  9.000E+00
       1    -1     0     0   501     0  0.000000000E+00  0.000000000E+00 -1.740802971E+01  1.740802971E+01  0.000000000E+00  0.00000E+00  9.000E+00
      23     2     1     2     0     0 -1.253345077E+01 -1.022005279E+01  1.145565484E+02  1.489062157E+02  9.374604742E+01  0.00000E+00  9.000E+00
      13     1     3     3     0     0 -2.741967720E-01 -5.353079037E+00  1.291349352E+02  1.292461733E+02  1.056583668E-01  0.00000E+00  9.000E+00
     -13     1     3     3     0     0 -1.225925400E+01 -4.866973755E+00 -1.457838680E+01  1.966004241E+01  1.056583668E-01  0.00000E+00  9.000E+00
       1     1     1     2   511     0  1.253345077E+01  1.022005279E+01  2.801497852E+02  2.806161774E+02  0.000000000E+00  0.00000E+00  9.000E+00
#pdf  -1  1 0.19971375E-01 0.26038218E-02 0.93746047E+02 0.37952746E+00 0.10651333E+01
#rwgt            1           5   376.37448551661078         54217137    18501758           0
</event>
<event>
      6  10013  3.31628E+03  1.52698E+00 -1.00000E+00  4.28084E-01
      -2    -1     0     0     0   501  0.000000000E+00  0.000000000E+00  4.797063567E+00  4.797063567E+00  0.000000000E+00  0.00000E+00  9.000E+00
       2    -1     0     0   511     0  0.000000000E+00  0.000000000E+00 -2.583597160E+01  2.583597160E+01  0.000000000E+00  0.00000E+00  9.000E+00
      23     2     1     2     0     0  2.655452745E-01 -1.503713563E+00 -1.761354490E+01  2.688273100E+01  2.025123683E+01  0.00000E+00  9.000E+00
      13     1     3     3     0     0 -3.299523425E+00  3.220872387E+00  2.956123304E+00  5.478202483E+00  1.056583668E-01  0.00000E+00  9.000E+00
     -13     1     3     3     0     0  3.565068700E+00 -4.724585949E+00 -2.056966821E+01  2.140452852E+01  1.056583668E-01  0.00000E+00  9.000E+00
      21     1     1     2   511   501 -2.655452745E-01  1.503713563E+00 -3.425363131E+00  3.750304168E+00  4.214684851E-08  0.00000E+00  9.000E+00
#pdf  -2  2 0.71099602E-03 0.34131017E-02 0.20251237E+02 0.11974558E+01 0.82165248E+00
#rwgt            1           4   985.10522673969820         54217137    18501838           0
</event>
<event>
      6  10013  3.31628E+03  1.32424E+01 -1.00000E+00  1.82589E-01
       2    -1     0     0   501     0  0.000000000E+00  0.000000000E+00  1.588915056E+03  1.588915056E+03  0.000000000E+00  0.00000E+00  9.000E+00
      21    -1     0     0   511   501  0.000000000E+00  0.000000000E+00 -2.091541613E+00  2.091541613E+00  0.000000000E+00  0.00000E+00  9.000E+00
      23     2     1     2     0     0 -7.190801360E+00 -1.111995173E+01  1.520813204E+03  1.523681104E+03  9.249835503E+01  0.00000E+00  9.000E+00
      13     1     3     3     0     0  6.733752264E+00 -3.537063322E+01  2.519513128E+02  2.545111005E+02  1.056583668E-01  0.00000E+00  9.000E+00
     -13     1     3     3     0     0 -1.392455362E+01  2.425068149E+01  1.268861891E+03  1.269170004E+03  1.056583668E-01  0.00000E+00  9.000E+00
       2     1     1     2   511     0  7.190801360E+00  1.111995173E+01  6.601031043E+01  6.732549320E+01  0.000000000E+00  0.00000E+00  9.000E+00
#pdf   2 -2 0.23182817E+00 0.21838113E-03 0.92498355E+02 0.44469474E+00 0.25846535E+01
#rwgt            1           7   1571.4637256087794         54217137    18502072           0
</event>
<event>
      6  10013  3.31628E+03  1.50320E+00 -1.00000E+00  4.32672E-01
      -2    -1     0     0     0   501  0.000000000E+00  0.000000000E+00  1.783407448E+00  1.783407448E+00  0.000000000E+00  0.00000E+00  9.000E+00
       2    -1     0     0   511     0  0.000000000E+00  0.000000000E+00 -7.358349162E+01  7.358349162E+01  0.000000000E+00  0.00000E+00  9.000E+00
      23     2     1     2     0     0  8.770725666E-01  1.220804038E+00 -6.054696221E+01  6.401382140E+01  2.072619304E+01  0.00000E+00  9.000E+00
      13     1     3     3     0     0 -6.254215460E+00 -7.178875752E+00 -2.328121865E+01  2.515308676E+01  1.056583668E-01  0.00000E+00  9.000E+00
     -13     1     3     3     0     0  7.131288027E+00  8.399679790E+00 -3.726574356E+01  3.886073463E+01  1.056583668E-01  0.00000E+00  9.000E+00
      21     1     1     2   511   501 -8.770725666E-01 -1.220804038E+00 -1.125312196E+01  1.135307767E+01  1.192092896E-07  0.00000E+00  9.000E+00
#pdf  -2  2 0.26598284E-03 0.95564975E-02 0.20726193E+02 0.16517675E+01 0.67795668E+00
#rwgt            1           4   1077.8123443375600         54217137    18502110           0
</event>
<event>
      6  10013  3.31628E+03  8.05770E+00 -1.00000E+00  2.07198E-01
       2    -1     0     0   501     0  0.000000000E+00  0.000000000E+00  6.881824165E+02  6.881824165E+02  0.000000000E+00  0.00000E+00  9.000E+00
      21    -1     0     0   511   501  0.000000000E+00  0.000000000E+00 -5.333531723E+00  5.333531723E+00  0.000000000E+00  0.00000E+00  9.000E+00
      23     2     1     2     0     0 -4.540708671E+00  6.656463934E+00  6.768759799E+02  6.834858864E+02  9.448247559E+01  0.00000E+00  9.000E+00
      13     1     3     3     0     0 -7.906934491E+00  2.133886768E+01  6.617407880E+02  6.621319721E+02  1.056583668E-01  0.00000E+00  9.000E+00
     -13     1     3     3     0     0  3.366225820E+00 -1.468240375E+01  1.513519192E+01  2.135391426E+01  1.056583668E-01  0.00000E+00  9.000E+00
       2     1     1     2   511     0  4.540708671E+00 -6.656463934E+00  5.972904856E+00  1.003006180E+01  0.000000000E+00  0.00000E+00  9.000E+00
#pdf   2 -2 0.10426474E+00 0.50661535E-03 0.94482476E+02 0.59840273E+00 0.18976816E+01
#rwgt            1           7   1904.9780189296339         54217137    18502336           0
</event>
<event>
      6  10013  3.31628E+03  3.96674E+00 -1.00000E+00  2.64219E-01
      21    -1     0     0   501   511  0.000000000E+00  0.000000000E+00  2.216136316E+01  2.216136316E+01  0.000000000E+00  0.00000E+00  9.000E+00
      -1    -1     0     0     0   501  0.000000000E+00  0.000000000E+00 -2.529134144E+01  2.529134144E+01  0.000000000E+00  0.00000E+00  9.000E+00
      23     2     1     2     0     0 -3.951850391E+00  3.433573823E-01 -1.969929184E+01  3.041518226E+01  2.283169282E+01  0.00000E+00  9.000E+00
      13     1     3     3     0     0 -1.601248466E+00 -1.115112343E+01 -7.788331097E+00  1.369601458E+01  1.056583668E-01  0.00000E+00  9.000E+00
     -13     1     3     3     0     0 -2.350601925E+00  1.149448081E+01 -1.191096074E+01  1.671916768E+01  1.056583668E-01  0.00000E+00  9.000E+00
      -1     1     1     2     0   511  3.951850391E+00 -3.433573823E-01  1.656931356E+01  1.703752235E+01  0.000000000E+00  0.00000E+00  9.000E+00
#pdf   1 -1 0.81213327E-03 0.37980635E-02 0.22831693E+02 0.12234748E+01 0.69466114E+00
#rwgt            1           6   210.34796814927304         54217137    18502398           0
</event>
<event>
      6  10013  3.31628E+03  1.96092E+00 -1.00000E+00  3.66898E-01
       1    -1     0     0   501     0  0.000000000E+00  0.000000000E+00  1.166234269E+01  1.166234269E+01  0.000000000E+00  0.00000E+00  9.000E+00
      -1    -1     0     0     0   511  0.000000000E+00  0.000000000E+00 -1.595344910E+02  1.595344910E+02  0.000000000E+00  0.00000E+00  9.000E+00
      23     2     1     2     0     0 -2.227705134E-01 -1.948223938E+00 -1.309636346E+02  1.541749936E+02  8.133025187E+01  0.00000E+00  9.000E+00
      13     1     3     3     0     0 -1.710436629E+01  1.563823795E+01 -2.376550624E+00  2.329748889E+01  1.056583668E-01  0.00000E+00  9.000E+00
     -13     1     3     3     0     0  1.688159578E+01 -1.758646188E+01 -1.285870839E+02  1.308775047E+02  1.056583668E-01  0.00000E+00  9.000E+00
      21     1     1     2   501   511  2.227705134E-01  1.948223938E+00 -1.690851378E+01  1.702184014E+01  0.000000000E+00  0.00000E+00  9.000E+00
#pdf   1 -1 0.17849704E-02 0.21927368E-01 0.81330252E+02 0.11966205E+01 0.35855669E+00
#rwgt            1           6   347.83553614760297         54217137    18502507           0
</event>
<event>
      6  10013  3.31628E+03  4.83498E+00 -1.00000E+00  2.45374E-01
      21    -1     0     0   501   511  0.000000000E+00  0.000000000E+00  7.104587071E+01  7.104587071E+01  0.000000000E+00  0.00000E+00  9.000E+00
      -4    -1     0     0     0   501  0.000000000E+00  0.000000000E+00 -3.221402378E+00  3.221402378E+00  0.000000000E+00  0.00000E+00  9.000E+00
      23     2     1     2     0     0 -4.604610151E+00  1.474663811E+00  6.352549516E+01  6.779747879E+01  2.318690419E+01  0.00000E+00  9.000E+00
      13     1     3     3     0     0 -1.183632651E+01  7.716729366E+00  3.832716548E+01  4.084885940E+01  1.056583668E-01  0.00000E+00  9.000E+00
     -13     1     3     3     0     0  7.231716361E+00 -6.242065555E+00  2.519832969E+01  2.694861938E+01  1.056583668E-01  0.00000E+00  9.000E+00
      -4     1     1     2     0   511  4.604610151E+00 -1.474663811E+00  4.298973168E+00  6.469794301E+00  0.000000000E+00  0.00000E+00  9.000E+00
#pdf   4 -4 0.98890593E-02 0.32169466E-03 0.23186904E+02 0.28168449E+00 0.12507470E+01
#rwgt            1           9   414.41833581935981         54217137    18502677           0
</event>
<event>
      6  10013  3.31628E+03  2.66353E+00 -1.00000E+00  3.13323E-01
      -2    -1     0     0     0   501  0.000000000E+00  0.000000000E+00  4.128536092E+00  4.128536092E+00  0.000000000E+00  0.00000E+00  9.000E+00
       2    -1     0     0   511     0  0.000000000E+00  0.000000000E+00 -1.503991933E+02  1.503991933E+02  0.000000000E+00  0.00000E+00  9.000E+00
      23     2     1     2     0     0 -2.271476792E+00 -1.390962317E+00 -1.291841438E+02  1.372348603E+02  4.623601922E+01  0.00000E+00  9.000E+00
      13     1     3     3     0     0  1.030905434E+00  1.862692440E+00  3.699868793E+00  4.269962753E+00  1.056583668E-01  0.00000E+00  9.000E+00
     -13     1     3     3     0     0 -3.302382226E+00 -3.253654756E+00 -1.328840126E+02  1.329648975E+02  1.056583668E-01  0.00000E+00  9.000E+00
      21     1     1     2   511   501  2.271476792E+00  1.390962317E+00 -1.708651341E+01  1.729286915E+01  3.371747881E-07  0.00000E+00  9.000E+00
#pdf  -2  2 0.61826085E-03 0.20459849E-01 0.46236019E+02 0.15298131E+01 0.65903664E+00
#rwgt            1           4   1484.5440599336612         54217137    18502800           0
</event>
<event>
      6  10013  3.31628E+03  4.06300E+00 -1.00000E+00  2.61774E-01
       2    -1     0     0   501     0  0.000000000E+00  0.000000000E+00  1.388165258E+03  1.388165258E+03  0.000000000E+00  0.00000E+00  9.000E+00
      -2    -1     0     0     0   511  0.000000000E+00  0.000000000E+00 -1.877036631E+00  1.877036631E+00  0.000000000E+00  0.00000E+00  9.000E+00
      23     2     1     2     0     0  2.235305371E+00  3.392843290E+00  1.375144373E+03  1.378180873E+03  9.134529570E+01  0.00000E+00  9.000E+00
      13     1     3     3     0     0  3.070921224E+01  1.896753565E+01  1.163746874E+03  1.164306497E+03  1.056583668E-01  0.00000E+00  9.000E+00
     -13     1     3     3     0     0 -2.847390687E+01 -1.557469236E+01  2.113974996E+02  2.138743753E+02  1.056583668E-01  0.00000E+00  9.000E+00
      21     1     1     2   501   511 -2.235305371E+00 -3.392843290E+00  1.114384814E+01  1.186142180E+01  3.576278687E-07  0.00000E+00  9.000E+00
#pdf   2 -2 0.21158505E+00 0.23334618E-03 0.91345296E+02 0.47438527E+00 0.25163536E+01
#rwgt            1           7   2309.8958900035373         54217137    18503038           0
</event>
<event>
      6  10013  3.31628E+03  1.75487E+00 -1.00000E+00  3.91576E-01
      21    -1     0     0   511   501  0.000000000E+00  0.000000000E+00  1.522474637E+01  1.522474637E+01  0.000000000E+00  0.00000E+00  9.000E+00
       1    -1     0     0   501     0  0.000000000E+00  0.000000000E+00 -3.899047790E+02  3.899047790E+02  0.000000000E+00  0.00000E+00  9.000E+00
      23     2     1     2     0     0 -1.461765428E+00  9.709825060E-01 -3.845299603E+02  3.951244947E+02  9.086801612E+01  0.00000E+00  9.000E+00
      13     1     3     3     0     0 -5.016867834E+00 -3.659254230E+01 -3.035137815E+02  3.057528574E+02  1.056583668E-01  0.00000E+00  9.000E+00
     -13     1     3     3     0     0  3.555102405E+00  3.756352481E+01 -8.101617887E+01  8.937163728E+01  1.056583668E-01  0.00000E+00  9.000E+00
       1     1     1     2   511     0  1.461765428E+00 -9.709825060E-01  9.849927649E+00  1.000503073E+01  0.000000000E+00  0.00000E+00  9.000E+00
#pdf  -1  1 0.81481225E-03 0.59962239E-01 0.90868016E+02 0.15764737E+01 0.42481599E+00
#rwgt            1           5   1044.4083194482967         54217137    18503179           0
</event>
<event>
      6  10013  3.31628E+03  6.20998E+00 -1.00000E+00  2.23100E-01
      -2    -1     0     0     0   501  0.000000000E+00  0.000000000E+00  5.915513211E+01  5.915513211E+01  0.000000000E+00  0.00000E+00  9.000E+00
       2    -1     0     0   511     0  0.000000000E+00  0.000000000E+00 -1.675709665E+01  1.675709665E+01  0.000000000E+00  0.00000E+00  9.000E+00
      23     2     1     2     0     0 -5.442664409E-01  6.186079945E+00  5.154918890E+01  6.485296024E+01  3.885902424E+01  0.00000E+00  9.000E+00
      13     1     3     3     0     0  1.247532448E+01  1.194775162E+01  4.673168087E+01  4.982212009E+01  1.056583668E-01  0.00000E+00  9.000E+00
     -13     1     3     3     0     0 -1.301959092E+01 -5.761671673E+00  4.817508021E+00  1.503084014E+01  1.056583668E-01  0.00000E+00  9.000E+00
      21     1     1     2   511   501  5.442664409E-01 -6.186079945E+00 -9.151153432E+00  1.105926852E+01  2.384185791E-07  0.00000E+00  9.000E+00
#pdf  -2  2 0.88418197E-02 0.10105445E-02 0.38859024E+02 0.51488350E+00 0.13043802E+01
#rwgt            1           4   824.70736750836261         54217137    18503393           0
</event>
<event>
      6  10013  3.31628E+03  2.60757E+00 -1.00000E+00  3.16496E-01
       2    -1     0     0   511     0  0.000000000E+00  0.000000000E+00  1.071462577E+01  1.071462577E+01  0.000000000E+00  0.00000E+00  9.000E+00
      -2    -1     0     0     0   501  0.000000000E+00  0.000000000E+00 -2.124440786E+02  2.124440786E+02  0.000000000E+00  0.00000E+00  9.000E+00
      23     2     1     2     0     0  2.386504532E+00  1.050717149E+00 -1.999899759E+02  2.200241884E+02  9.169434886E+01  0.00000E+00  9.000E+00
      13     1     3     3     0     0 -1.291459673E+01  2.580555999E+00  5.272497890E+00  1.418648920E+01  1.056583668E-01  0.00000E+00  9.000E+00
     -13     1     3     3     0     0  1.530110127E+01 -1.529838850E+00 -2.052624737E+02  2.058376992E+02  1.056583668E-01  0.00000E+00  9.000E+00
      21     1     1     2   511   501 -2.386504532E+00 -1.050717149E+00 -1.739476945E+00  3.134515984E+00  5.575503985E-08  0.00000E+00  9.000E+00
#pdf   2 -2 0.15404705E-02 0.32295726E-01 0.91694349E+02 0.13130565E+01 0.25706657E+00
#rwgt            1           7   459.13404182133553         54217137    18503503           0
</event>
<event>
      6  10013  3.31628E+03  3.39784E+01 -1.00000E+00  1.49343E-01
      21    -1     0     0   511   501  0.000000000E+00  0.000000000E+00  4.544198257E+01  4.544198257E+01  0.000000000E+00  0.00000E+00  9.000E+00
       3    -1     0     0   501     0  0.000000000E+00  0.000000000E+00 -1.175110734E+02  1.175110734E+02  0.000000000E+00  0.00000E+00  9.000E+00
      23     2     1     2     0     0 -3.220727473E+01  1.082684195E+01 -8.333330233E+01  1.271562472E+02  8.983174761E+01  0.00000E+00  9.000E+00
      13     1     3     3     0     0 -1.128168553E+01  4.181445582E+00 -9.928887501E+01  1.000152627E+02  1.056583668E-01  0.00000E+00  9.000E+00
     -13     1     3     3     0     0 -2.092558920E+01  6.645396366E+00  1.595557267E+01  2.714098449E+01  1.056583668E-01  0.00000E+00  9.000E+00
       3     1     1     2   511     0  3.220727473E+01 -1.082684195E+01  1.126421154E+01  3.579680871E+01  0.000000000E+00  0.00000E+00  9.000E+00
#pdf  -3  3 0.31529857E-02 0.15144362E-01 0.89831748E+02 0.86443780E+00 0.38318143E+00
#rwgt            1           3   403.16522119741148         54217137    18503731           0
</event>
<event>
      6  10013  3.31628E+03  1.30100E+01 -1.00000E+00  1.83361E-01
       1    -1     0     0   501     0  0.000000000E+00  0.000000000E+00  2.354262687E+03  2.354262687E+03  0.000000000E+00  0.00000E+00  9.000E+00
      21    -1     0     0   511   501  0.000000000E+00  0.000000000E+00 -9.009800906E+00  9.009800906E+00  0.000000000E+00  0.00000E+00  9.000E+00
      23     2     1     2     0     0 -1.106797671E+01 -6.838127749E+00  2.347910755E+03  2.349993769E+03  9.806396522E+01  0.00000E+00  9.000E+00
      13     1     3     3     0     0  5.264575540E+00 -2.867835976E+01  2.151617668E+03  2.151815225E+03  1.056583668E-01  0.00000E+00  9.000E+00
     -13     1     3     3     0     0 -1.633255225E+01  2.184023201E+01  1.962930875E+02  1.981785441E+02  1.056583668E-01  0.00000E+00  9.000E+00
       1     1     1     2   511     0  1.106797671E+01  6.838127749E+00 -2.657869105E+00  1.327871860E+01  0.000000000E+00  0.00000E+00  9.000E+00
#pdf   1 -1 0.35823836E+00 0.15884008E-03 0.98063965E+02 0.88596111E-01 0.29419997E+01
#rwgt            1           6   802.16798722823205         54217137    18503780           0
</event>
<event>
      6  10013  3.31628E+03  3.02815E+01 -1.00000E+00  1.52724E-01
       2    -1     0     0   501     0  0.000000000E+00  0.000000000E+00  2.706447690E+02  2.706447690E+02  0.000000000E+00  0.00000E+00  9.000E+00
      21    -1     0     0   511   501  0.000000000E+00  0.000000000E+00 -1.702356475E+01  1.702356475E+01  0.000000000E+00  0.00000E+00  9.000E+00
      23     2     1     2     0     0  9.388728777E+00 -2.878929485E+01  2.538984234E+02  2.573855239E+02  2.942663325E+01  0.00000E+00  9.000E+00
      13     1     3     3     0     0 -1.778843612E+00 -2.435000768E+00  1.500663577E+00  3.369965608E+00  1.056583668E-01  0.00000E+00  9.000E+00
     -13     1     3     3     0     0  1.116757239E+01 -2.635429408E+01  2.523977599E+02  2.540155583E+02  1.056583668E-01  0.00000E+00  9.000E+00
       2     1     1     2   511     0 -9.388728777E+00  2.878929485E+01 -2.772191505E-01  3.028280992E+01  0.000000000E+00  0.00000E+00  9.000E+00
#pdf   2 -2 0.27409182E-01 0.18693834E-03 0.29426633E+02 0.63393830E+00 0.20519893E+01
#rwgt            1           7   1596.9789780011681         54217137    18503811           0
</event>
<event>
      6  10013  3.31628E+03  1.27248E+01 -1.00000E+00  1.84338E-01
       2    -1     0     0   501     0  0.000000000E+00  0.000000000E+00  1.039758528E+03  1.039758528E+03  0.000000000E+00  0.00000E+00  9.000E+00
      21    -1     0     0   511   501  0.000000000E+00  0.000000000E+00 -3.331528175E-01  3.331528175E-01  0.000000000E+00  0.00000E+00  9.000E+00
      23     2     1     2     0     0  1.233555214E+01  3.123436163E+00  7.641122027E+02  7.644845970E+02  2.018214701E+01  0.00000E+00  9.000E+00
      13     1     3     3     0     0  6.974946399E+00 -3.579260790E+00  6.509945316E+02  6.510417439E+02  1.056583668E-01  0.00000E+00  9.000E+00
     -13     1     3     3     0     0  5.360605737E+00  6.702696954E+00  1.131176711E+02  1.134428531E+02  1.056583668E-01  0.00000E+00  9.000E+00
       2     1     1     2   511     0 -1.233555214E+01 -3.123436163E+00  2.753131728E+02  2.756070841E+02  0.000000000E+00  0.00000E+00  9.000E+00
#pdf   2 -2 0.99464697E-01 0.24231431E-04 0.20182147E+02 0.62668804E+00 0.33631158E+01
#rwgt            1           7   2109.4594567043960         54217137    18503840           0
</event>
<event>
      6  10013  3.31628E+03  1.66434E+01 -1.00000E+00  1.73188E-01
       3    -1     0     0   501     0  0.000000000E+00  0.000000000E+00  6.563255894E+01  6.563255894E+01  0.000000000E+00  0.00000E+00  9.000E+00
      21    -1     0     0   511   501  0.000000000E+00  0.000000000E+00 -6.262118027E+01  6.262118027E+01  0.000000000E+00  0.00000E+00  9.000E+00
      23     2     1     2     0     0  1.461695412E+01  7.959104497E+00 -5.288194976E+00  1.096557389E+02  1.082562394E+02  0.00000E+00  9.000E+00
      13     1     3     3     0     0  3.967018037E+00 -1.469406831E+01  4.822898656E+01  5.057370052E+01  1.056583668E-01  0.00000E+00  9.000E+00
     -13     1     3     3     0     0  1.064993608E+01  2.265317281E+01 -5.351718154E+01  5.908203839E+01  1.056583668E-01  0.00000E+00  9.000E+00
       3     1     1     2   511     0 -1.461695412E+01 -7.959104497E+00  8.299573648E+00  1.859800029E+01  0.000000000E+00  0.00000E+00  9.000E+00
#pdf   3 -3 0.79350431E-02 0.87391638E-02 0.10825624E+03 0.56221615E+00 0.53372213E+00
#rwgt            1           8   551.51111984996203         54217137    18503893           0
</event>
<event>
      6  10013  3.31628E+03  1.27998E+00 -1.00000E+00  5.06276E-01
       2    -1     0     0   501     0  0.000000000E+00  0.000000000E+00  5.958286293E+00  5.958286293E+00  0.000000000E+00  0.00000E+00  9.000E+00
      -2    -1     0     0     0   511  0.000000000E+00  0.000000000E+00 -2.432063478E+01  2.432063478E+01  0.000000000E+00  0.00000E+00  9.000E+00
      23     2     1     2     0     0 -4.631667015E-01  1.193241149E+00 -1.695137816E+01  2.837387905E+01  2.271760206E+01  0.00000E+00  9.000E+00
      13     1     3     3     0     0  1.062461636E+01  2.644910578E+00 -5.098532386E+00  1.207825406E+01  1.056583668E-01  0.00000E+00  9.000E+00
     -13     1     3     3     0     0 -1.108778307E+01 -1.451669429E+00 -1.185284577E+01  1.629562500E+01  1.056583668E-01  0.00000E+00  9.000E+00
      21     1     1     2   501   511  4.631667015E-01 -1.193241149E+00 -1.410970328E+00  1.905042020E+00  3.332000937E-08  0.00000E+00  9.000E+00
#pdf   2 -2 0.87726256E-03 0.34810373E-02 0.22717602E+02 0.12104246E+01 0.70527507E+00
#rwgt            1           7   690.90330704267478         54217137    18503938           0
</event>
<event>
      6  10013  3.31628E+03  1.85696E+00 -1.00000E+00  3.78575E-01
      21    -1     0     0   501   511  0.000000000E+00  0.000000000E+00  1.960103541E+02  1.960103541E+02  0.000000000E+00  0.00000E+00  9.000E+00
      -2    -1     0     0     0   501  0.000000000E+00  0.000000000E+00 -2.147299977E+00  2.147299977E+00  0.000000000E+00  0.00000E+00  9.000E+00
      23     2     1     2     0     0 -6.502535314E-01  1.739386505E+00  5.270116385E+01  5.698355036E+01  2.159314811E+01  0.00000E+00  9.000E+00
      13     1     3     3     0     0  7.094916613E+00  4.254533050E+00  7.870127982E+00  1.141879903E+01  1.056583668E-01  0.00000E+00  9.000E+00
     -13     1     3     3     0     0 -7.745170144E+00 -2.515146545E+00  4.483103587E+01  4.556475133E+01  1.056583668E-01  0.00000E+00  9.000E+00
      -2     1     1     2     0   511  6.502535314E-01 -1.739386505E+00  1.411618903E+02  1.411741037E+02  0.000000000E+00  0.00000E+00  9.000E+00
#pdf   2 -2 0.84062584E-02 0.32820296E-03 0.21593148E+02 0.69421200E+00 0.15646746E+01
#rwgt            1           7   1103.1831923816017         54217137    18504054           0
</event>
<event>
      6  10013  3.31628E+03  1.67663E+01 -1.00000E+00  1.72902E-01
      21    -1     0     0   501   511  0.000000000E+00  0.000000000E+00  7.629615316E+01  7.629615316E+01  0.000000000E+00  0.00000E+00  9.000E+00
      -1    -1     0     0     0   501  0.000000000E+00  0.000000000E+00 -1.477525349E+01  1.477525349E+01  0.000000000E+00  0.00000E+00  9.000E+00
      23     2     1     2     0     0 -5.533646269E+00  1.582676160E+01  3.247234940E+00  3.043373169E+01  2.519047174E+01  0.00000E+00  9.000E+00
      13     1     3     3     0     0  2.503338870E+00  2.067484189E+01  3.023740341E+00  2.104447580E+01  1.056583668E-01  0.00000E+00  9.000E+00
     -13     1     3     3     0     0 -8.036985139E+00 -4.848080290E+00  2.234945985E-01  9.389255889E+00  1.056583668E-01  0.00000E+00  9.000E+00
      -1     1     1     2     0   511  5.533646269E+00 -1.582676160E+01  5.827366473E+01  6.063767496E+01  0.000000000E+00  0.00000E+00  9.000E+00
#pdf   1 -1 0.21567937E-02 0.17409139E-02 0.25190472E+02 0.92818403E+00 0.93687768E+00
#rwgt            1           6   222.63522956591140         54217137    18504183           0
</event>
<event>
      6  10013  3.31628E+03  2.64574E+01 -1.00000E+00  1.56893E-01
       2    -1     0     0   501     0  0.000000000E+00  0.000000000E+00  4.696287477E+03  4.696287477E+03  0.000000000E+00  0.00000E+00  9.000E+00
      21    -1     0     0   511   501  0.000000000E+00  0.000000000E+00 -1.234655578E+00  1.234655578E+00  0.000000000E+00  0.00000E+00  9.000E+00
      23     2     1     2     0     0  2.584011427E+01 -5.681916225E+00  4.427544378E+03  4.428708511E+03  9.802991039E+01  0.00000E+00  9.000E+00
      13     1     3     3     0     0 -3.282013697E+01 -2.323386396E+01  1.661884092E+03  1.662370512E+03  1.056583668E-01  0.00000E+00  9.000E+00
     -13     1     3     3     0     0  5.866025124E+01  1.755194774E+01  2.765660286E+03  2.766337999E+03  1.056583668E-01  0.00000E+00  9.000E+00
       2     1     1     2   511     0 -2.584011427E+01  5.681916225E+00  2.675084437E+02  2.688136216E+02  0.000000000E+00  0.00000E+00  9.000E+00
#pdf   2 -2 0.65771675E+00 0.86455297E-04 0.98029910E+02 0.24742908E-01 0.36481497E+01
#rwgt            1           7   560.97512484718447         54217137    18504220           0
</event>
<event>
      6  10013  3.31628E+03  1.45080E+00 -1.00000E+00  4.55993E-01
      -2    -1     0     0     0   511  0.000000000E+00  0.000000000E+00  3.345978908E-01  3.345978908E-01  0.000000000E+00  0.00000E+00  9.000E+00
       2    -1     0     0   501     0  0.000000000E+00  0.000000000E+00 -2.395771368E+03  2.395771368E+03  0.000000000E+00  0.00000E+00  9.000E+00
      23     2     1     2     0     0 -1.181564220E+00  8.418537658E-01 -2.392646066E+03  2.392960677E+03  3.877499492E+01  0.00000E+00  9.000E+00
      13     1     3     3     0     0 -9.462196415E+00 -1.353425286E+01 -5.701972491E+02  5.704363446E+02  1.056583668E-01  0.00000E+00  9.000E+00
     -13     1     3     3     0     0  8.280632195E+00  1.437610663E+01 -1.822448817E+03  1.822524333E+03  1.056583668E-01  0.00000E+00  9.000E+00
      21     1     1     2   501   511  1.181564220E+00 -8.418537658E-01 -2.790703646E+00  3.145288319E+00  1.837138534E-07  0.00000E+00  9.000E+00
#pdf  -2  2 0.24183932E-04 0.36786619E+00 0.38774995E+02 0.42724815E+01 0.27926659E+00
#rwgt            1           4   13960.311364034013         54217137    18504271           0
</event>
<event>
      6  10013  3.31628E+03  9.79694E+00 -1.00000E+00  1.96734E-01
      -2    -1     0     0     0   501  0.000000000E+00  0.000000000E+00  9.973372439E+00  9.973372439E+00  0.000000000E+00  0.00000E+00  9.000E+00
      21    -1     0     0   501   511  0.000000000E+00  0.000000000E+00 -3.354830474E+01  3.354830474E+01  0.000000000E+00  0.00000E+00  9.000E+00
      23     2     1     2     0     0  1.399282808E+00 -9.696499677E+00 -1.283490541E+01  2.898454280E+01  2.407049700E+01  0.00000E+00  9.000E+00
      13     1     3     3     0     0 -5.171457736E-01  6.284084838E+00  2.471360065E+00  6.773178446E+00  1.056583668E-01  0.00000E+00  9.000E+00
     -13     1     3     3     0     0  1.916428582E+00 -1.598058451E+01 -1.530626548E+01  2.221136435E+01  1.056583668E-01  0.00000E+00  9.000E+00
      -2     1     1     2     0   511 -1.399282808E+00  9.696499677E+00 -1.074002689E+01  1.453713438E+01  0.000000000E+00  0.00000E+00  9.000E+00
#pdf  -2  2 0.11506254E-02 0.29795417E-02 0.24070497E+02 0.10630522E+01 0.87479910E+00
#rwgt            1           4   754.33569582105019         54217137    18504717           0
</event>
<event>
      6  10013  3.31628E+03  1.84279E+01 -1.00000E+00  1.69314E-01
       2    -1     0     0   501     0  0.000000000E+00  0.000000000E+00  1.244653078E+03  1.244653078E+03  0.000000000E+00  0.00000E+00  9.000E+00
      -2    -1     0     0     0   511  0.000000000E+00  0.000000000E+00 -6.978482158E-01  6.978482158E-01  0.000000000E+00  0.00000E+00  9.000E+00
      23     2     1     2     0     0  1.737346425E+01 -6.144062646E+00  1.006451494E+03  1.007133355E+03  3.214650894E+01  0.00000E+00  9.000E+00
      13     1     3     3     0     0  2.516196724E+01 -1.101600521E+01  8.128894811E+02  8.133534266E+02  1.056583668E-01  0.00000E+00  9.000E+00
     -13     1     3     3     0     0 -7.788502991E+00  4.871942560E+00  1.935620128E+02  1.937799282E+02  1.056583668E-01  0.00000E+00  9.000E+00
      21     1     1     2   501   511 -1.737346425E+01  6.144062646E+00  2.375037356E+02  2.382175711E+02  2.697398305E-06  0.00000E+00  9.000E+00
#pdf   2 -2 0.13437780E+00 0.45504400E-04 0.32146509E+02 0.59792937E+00 0.32988056E+01
#rwgt            1           7   2856.0013668603774         54217137    18504797           0
</event>
<event>
      6  10013  3.31628E+03  4.71937E+01 -1.00000E+00  1.40493E-01
      21    -1     0     0   501   511  0.000000000E+00  0.000000000E+00  5.741779583E+01  5.741779583E+01  0.000000000E+00  0.00000E+00  9.000E+00
      -4    -1     0     0     0   501  0.000000000E+00  0.000000000E+00 -2.856039099E+02  2.856039099E+02  0.000000000E+00  0.00000E+00  9.000E+00
      23     2     1     2     0     0 -4.714585022E+01  2.124386830E+00 -2.639931502E+02  2.837816176E+02  9.280290379E+01  0.00000E+00  9.000E+00
      13     1     3     3     0     0 -1.057796573E+01  2.421255991E+01 -1.350005601E+01  2.967160414E+01  1.056583668E-01  0.00000E+00  9.000E+00
     -13     1     3     3     0     0 -3.656788449E+01 -2.208817308E+01 -2.504930941E+02  2.541100135E+02  1.056583668E-01  0.00000E+00  9.000E+00
      -4     1     1     2     0   511  4.714585022E+01 -2.124386830E+00  3.580703606E+01  5.924008815E+01  0.000000000E+00  0.00000E+00  9.000E+00
#pdf   4 -4 0.13568233E-02 0.37558924E-01 0.92802904E+02 0.10309234E+01 0.11678740E+00
#rwgt            1           9   147.52374365440016         54217137    18504837           0
</event>
<event>
      6  10013  3.31628E+03  1.62595E+00 -1.00000E+00  4.10729E-01
      21    -1     0     0   511   501  0.000000000E+00  0.000000000E+00  5.590392804E-01  5.590392804E-01  0.000000000E+00  0.00000E+00  9.000E+00
       2    -1     0     0   501     0  0.000000000E+00  0.000000000E+00 -3.354226408E+02  3.354226408E+02  0.000000000E+00  0.00000E+00  9.000E+00
      23     2     1     2     0     0 -6.437583057E-01 -1.493074923E+00 -3.294605522E+02  3.303392835E+02  2.402380186E+01  0.00000E+00  9.000E+00
      13     1     3     3     0     0 -7.274140917E+00  1.868358317E+00 -2.945560670E+02  2.946518142E+02  1.056583668E-01  0.00000E+00  9.000E+00
     -13     1     3     3     0     0  6.630382612E+00 -3.361433239E+00 -3.490448522E+01  3.568746922E+01  1.056583668E-01  0.00000E+00  9.000E+00
       2     1     1     2   511     0  6.437583057E-01  1.493074923E+00 -5.403049361E+00  5.642396643E+00  0.000000000E+00  0.00000E+00  9.000E+00
#pdf  -2  2 0.67440429E-04 0.50637988E-01 0.24023802E+02 0.26483539E+01 0.62685038E+00
#rwgt            1           4   1908.8588991051388         54217137    18504894           0
</event>
<event>
      6  10013  3.31628E+03  1.27190E+00 -1.00000E+00  5.09140E-01
       2    -1     0     0   501     0  0.000000000E+00  0.000000000E+00  2.338112862E+02  2.338112862E+02  0.000000000E+00  0.00000E+00  9.000E+00
      -2    -1     0     0     0   511  0.000000000E+00  0.000000000E+00 -1.285705002E+01  1.285705002E+01  0.000000000E+00  0.00000E+00  9.000E+00
      23     2     1     2     0     0  4.573653198E-01  1.186816836E+00  2.259232685E+02  2.415391064E+02  8.542949710E+01  0.00000E+00  9.000E+00
      13     1     3     3     0     0 -2.576070375E+00 -1.315957069E+01 -1.634809263E+00  1.350904157E+01  1.056583668E-01  0.00000E+00  9.000E+00
     -13     1     3     3     0     0  3.033435694E+00  1.434638752E+01  2.275580777E+02  2.280300648E+02  1.056583668E-01  0.00000E+00  9.000E+00
      21     1     1     2   501   511 -4.573653198E-01 -1.186816836E+00 -4.969032256E+00  5.129229844E+00  1.576990671E-07  0.00000E+00  9.000E+00
#pdf   2 -2 0.35954660E-01 0.12010852E-02 0.85429497E+02 0.64388794E+00 0.13330168E+01
#rwgt            1           7   1273.5994305694605         54217137    18505131           0
</event>
<event>
      6  10013  3.31628E+03  4.08842E+01 -1.00000E+00  1.44223E-01
      21    -1     0     0   501   511  0.000000000E+00  0.000000000E+00  7.434865608E+01  7.434865608E+01  0.000000000E+00  0.00000E+00  9.000E+00
      -1    -1     0     0     0   501  0.000000000E+00  0.000000000E+00 -6.727946916E+01  6.727946916E+01  0.000000000E+00  0.00000E+00  9.000E+00
      23     2     1     2     0     0 -3.874558234E+01  1.304996484E+01 -2.939804070E+00  9.953653899E+01  9.070478715E+01  0.00000E+00  9.000E+00
      13     1     3     3     0     0 -4.338917051E+01 -2.158527188E+01  2.524363606E+01  5.464244143E+01  1.056583668E-01  0.00000E+00  9.000E+00
     -13     1     3     3     0     0  4.643588171E+00  3.463523672E+01 -2.818344013E+01  4.489409755E+01  1.056583668E-01  0.00000E+00  9.000E+00
      -1     1     1     2     0   511  3.874558234E+01 -1.304996484E+01  1.000899099E+01  4.209158626E+01  0.000000000E+00  0.00000E+00  9.000E+00
#pdf   1 -1 0.67741728E-02 0.71865002E-02 0.90704787E+02 0.76373354E+00 0.63262320E+00
#rwgt            1           6   692.65519423606736         54217137    18505425           0
</event>
<event>
      6  10013  3.31628E+03  4.19933E+00 -1.00000E+00  2.58487E-01
       3    -1     0     0   511     0  0.000000000E+00  0.000000000E+00  2.721798942E+00  2.721798942E+00  0.000000000E+00  0.00000E+00  9.000E+00
      -3    -1     0     0     0   501  0.000000000E+00  0.000000000E+00 -9.291741385E+02  9.291741385E+02  0.000000000E+00  0.00000E+00  9.000E+00
      23     2     1     2     0     0 -3.838187094E+00  1.703718012E+00 -9.172328201E+02  9.217650996E+02  9.119878476E+01  0.00000E+00  9.000E+00
      13     1     3     3     0     0 -2.672589222E+00  2.061885499E+01 -8.774774021E+02  8.777236936E+02  1.056583668E-01  0.00000E+00  9.000E+00
     -13     1     3     3     0     0 -1.165597872E+00 -1.891513697E+01 -3.975541801E+01  4.404140609E+01  1.056583668E-01  0.00000E+00  9.000E+00
      21     1     1     2   511   501  3.838187094E+00 -1.703718012E+00 -9.219519475E+00  1.013083780E+01  4.915124924E-07  0.00000E+00  9.000E+00
#pdf   3 -3 0.34826788E-03 0.14131165E+00 0.91198785E+02 0.21204056E+01 0.34864900E-01
#rwgt            1           8   90.086607744139314         54217137    18505475           0
</event>
<event>
      6  10013  3.31628E+03  6.85434E+00 -1.00000E+00  2.16780E-01
       4    -1     0     0   501     0  0.000000000E+00  0.000000000E+00  1.883074511E+01  1.883074511E+01  0.000000000E+00  0.00000E+00  9.000E+00
      21    -1     0     0   511   501  0.000000000E+00  0.000000000E+00 -3.551111872E+01  3.551111872E+01  0.000000000E+00  0.00000E+00  9.000E+00
      23     2     1     2     0     0 -6.636678036E+00 -1.713635547E+00  8.813801404E+00  2.794233729E+01  2.561462621E+01  0.00000E+00  9.000E+00
      13     1     3     3     0     0 -1.525406993E+01  2.379799913E+00  7.615496346E-01  1.545772359E+01  1.056583668E-01  0.00000E+00  9.000E+00
     -13     1     3     3     0     0  8.617391894E+00 -4.093435461E+00  8.052251770E+00  1.248461370E+01  1.056583668E-01  0.00000E+00  9.000E+00
       4     1     1     2   511     0  6.636678036E+00  1.713635547E+00 -2.549417502E+01  2.639952655E+01  0.000000000E+00  0.00000E+00  9.000E+00
#pdf   4 -4 0.27312959E-02 0.14214140E-02 0.25614626E+02 0.56016225E+00 0.74118107E+00
#rwgt            1           9   476.48470784344573         54217137    18505592           0
</event>
<event>
      6  10013  3.31628E+03  1.16724E+00 -1.00000E+00  5.51698E-01
       2    -1     0     0   511     0  0.000000000E+00  0.000000000E+00  2.685819525E+03  2.685819525E+03  0.000000000E+00  0.00000E+00  9.000E+00
      -2    -1     0     0     0   501  0.000000000E+00  0.000000000E+00 -8.925094850E-01  8.925094850E-01  0.000000000E+00  0.00000E+00  9.000E+00
      23     2     1     2     0     0  8.078267510E-01 -8.425324110E-01  2.534859348E+03  2.536639828E+03  9.501756888E+01  0.00000E+00  9.000E+00
      13     1     3     3     0     0 -1.756870175E+01  4.802772274E+00  2.427788164E+03  2.427856484E+03  1.056583668E-01  0.00000E+00  9.000E+00
     -13     1     3     3     0     0  1.837652850E+01 -5.645304685E+00  1.070711841E+02  1.087833438E+02  1.056583668E-01  0.00000E+00  9.000E+00
      21     1     1     2   511   501 -8.078267510E-01  8.425324110E-01  1.500676672E+02  1.500722066E+02  2.697398305E-06  0.00000E+00  9.000E+00
#pdf   2 -2 0.39008589E+00 0.13694964E-03 0.95017569E+02 0.21878127E+00 0.30767229E+01
#rwgt            1           7   4910.8025874751920         54217137    18505678           0
</event>
<event>
      5  10013  3.31628E+03  8.94427E-01 -1.00000E+00  7.19419E-01
      -2    -1     0     0     0   501  0.000000000E+00  0.000000000E+00  1.806372700E-01  1.806372700E-01  0.000000000E+00  0.00000E+00  9.000E+00
       2    -1     0     0   501     0  0.000000000E+00  0.000000000E+00 -6.574851633E+02  6.574851633E+02  0.000000000E+00  0.00000E+00  9.000E+00
      23     2     1     2     0     0  0.000000000E+00  0.000000000E+00 -6.573045260E+02  6.576658006E+02  2.179599275E+01  0.00000E+00  9.000E+00
      13     1     3     3     0     0  1.833159287E+00 -1.073491204E+01 -3.167211729E+02  3.169083643E+02  1.056583668E-01  0.00000E+00  9.000E+00
     -13     1     3     3     0     0 -1.833159287E+00  1.073491204E+01 -3.405833531E+02  3.407574363E+02  1.056583668E-01  0.00000E+00  9.000E+00
#pdf  -2  2 0.27790349E-04 0.10115156E+00 0.21795993E+02 0.33304905E+01 0.62499250E+00
#rwgt            1           4   2395.5072061133565         54217137    18506020           0
</event>
<event>
      6  10013  3.31628E+03  1.70839E+00 -1.00000E+00  3.98090E-01
      -1    -1     0     0     0   501  0.000000000E+00  0.000000000E+00  6.479491703E+01  6.479491703E+01  0.000000000E+00  0.00000E+00  9.000E+00
       1    -1     0     0   511     0  0.000000000E+00  0.000000000E+00 -1.106537625E+02  1.106537625E+02  0.000000000E+00  0.00000E+00  9.000E+00
      23     2     1     2     0     0 -1.283104939E+00  1.127941421E+00  3.135775784E+01  9.821317968E+01  9.305697758E+01  0.00000E+00  9.000E+00
      13     1     3     3     0     0  9.472356425E+00  3.237180633E+01 -1.844660337E+01  3.844408564E+01  1.056583668E-01  0.00000E+00  9.000E+00
     -13     1     3     3     0     0 -1.075546136E+01 -3.124386491E+01  4.980436120E+01  5.976909404E+01  1.056583668E-01  0.00000E+00  9.000E+00
      21     1     1     2   511   501  1.283104939E+00 -1.127941421E+00 -7.721660335E+01  7.723549989E+01  9.536743164E-07  0.00000E+00  9.000E+00
#pdf  -1  1 0.99653160E-02 0.51418583E-02 0.93056978E+02 0.54274609E+00 0.83901658E+00
#rwgt            1           5   754.52378604722696         54217137    18506355           0
</event>
<event>
      6  10013  3.31628E+03  1.21292E+01 -1.00000E+00  1.86488E-01
       1    -1     0     0   511     0  0.000000000E+00  0.000000000E+00  1.924040474E+01  1.924040474E+01  0.000000000E+00  0.00000E+00  9.000E+00
      -1    -1     0     0     0   501  0.000000000E+00  0.000000000E+00 -2.575880534E+02  2.575880534E+02  0.000000000E+00  0.00000E+00  9.000E+00
      23     2     1     2     0     0  6.477042455E+00  1.025501625E+01 -2.460336864E+02  2.624690496E+02  9.061075949E+01  0.00000E+00  9.000E+00
      13     1     3     3     0     0  1.485868602E+01  1.950142028E+01 -2.485342944E+02  2.497406506E+02  1.056583668E-01  0.00000E+00  9.000E+00
     -13     1     3     3     0     0 -8.381643570E+00 -9.246404032E+00  2.500607988E+00  1.272839897E+01  1.056583668E-01  0.00000E+00  9.000E+00
      21     1     1     2   511   501 -6.477042455E+00 -1.025501625E+01  7.686037715E+00  1.435940852E+01  4.380028980E-07  0.00000E+00  9.000E+00
#pdf   1 -1 0.12530818E-02 0.38769787E-01 0.90610759E+02 0.13813185E+01 0.25517620E+00
#rwgt            1           6   386.41393640410132         54217137    18506551           0
</event>
<event>
      6  10013  3.31628E+03  1.11965E+01 -1.00000E+00  1.90194E-01
      21    -1     0     0   511   501  0.000000000E+00  0.000000000E+00  3.030336277E-01  3.030336277E-01  0.000000000E+00  0.00000E+00  9.000E+00
       2    -1     0     0   501     0  0.000000000E+00  0.000000000E+00 -1.045035233E+03  1.045035233E+03  0.000000000E+00  0.00000E+00  9.000E+00
      23     2     1     2     0     0  1.964817663E+00 -1.102274761E+01 -7.338717228E+02  7.342762191E+02  2.164483867E+01  0.00000E+00  9.000E+00
      13     1     3     3     0     0  7.571008444E+00 -4.279113801E+00 -1.101455479E+02  1.104883879E+02  1.056583668E-01  0.00000E+00  9.000E+00
     -13     1     3     3     0     0 -5.606190781E+00 -6.743633813E+00 -6.237261749E+02  6.237878312E+02  1.056583668E-01  0.00000E+00  9.000E+00
       2     1     1     2   511     0 -1.964817663E+00  1.102274761E+01 -3.108604770E+02  3.110620479E+02  0.000000000E+00  0.00000E+00  9.000E+00
#pdf  -2  2 0.27636523E-04 0.10030870E+00 0.21644839E+02 0.33269603E+01 0.62535442E+00
#rwgt            1           4   2775.4980792013562         54217137    18506644           0
</event>
<event>
      6  10013  3.31628E+03  2.66735E+01 -1.00000E+00  1.56635E-01
       3    -1     0     0   501     0  0.000000000E+00  0.000000000E+00  8.593266217E+01  8.593266217E+01  0.000000000E+00  0.00000E+00  9.000E+00
      -3    -1     0     0     0   511  0.000000000E+00  0.000000000E+00 -7.915423792E+01  7.915423792E+01  0.000000000E+00  0.00000E+00  9.000E+00
      23     2     1     2     0     0  2.633848323E+01  4.214121710E+00  5.438578588E+01  1.105164374E+02  9.243697690E+01  0.00000E+00  9.000E+00
      13     1     3     3     0     0  3.220180479E+01  4.240010716E+01  4.734169081E+01  7.124585722E+01  1.056583668E-01  0.00000E+00  9.000E+00
     -13     1     3     3     0     0 -5.863321558E+00 -3.818598545E+01  7.044095077E+00  3.927058013E+01  1.056583668E-01  0.00000E+00  9.000E+00
      21     1     1     2   501   511 -2.633848323E+01 -4.214121710E+00 -4.760736164E+01  5.457046273E+01  6.743495762E-07  0.00000E+00  9.000E+00
#pdf   3 -3 0.12187527E-01 0.41484816E-02 0.92436977E+02 0.43742918E+00 0.76471217E+00
#rwgt            1           8   398.42877612135226         54217137    18506675           0
</event>
<event>
      6  10013  3.31628E+03  2.01185E+01 -1.00000E+00  1.66116E-01
       2    -1     0     0   501     0  0.000000000E+00  0.000000000E+00  1.737752285E+01  1.737752285E+01  0.000000000E+00  0.00000E+00  9.000E+00
      -2    -1     0     0     0   511  0.000000000E+00  0.000000000E+00 -2.177278975E+02  2.177278975E+02  0.000000000E+00  0.00000E+00  9.000E+00
      23     2     1     2     0     0 -1.965083803E+01  4.312477548E+00 -1.625338646E+02  1.922703724E+02  1.007267892E+02  0.00000E+00  9.000E+00
      13     1     3     3     0     0  1.316213135E+01 -4.279841174E+01 -6.166452435E+01  7.620676135E+01  1.056583668E-01  0.00000E+00  9.000E+00
     -13     1     3     3     0     0 -3.281296938E+01  4.711088928E+01 -1.008693403E+02  1.160636111E+02  1.056583668E-01  0.00000E+00  9.000E+00
      21     1     1     2   501   511  1.965083803E+01 -4.312477548E+00 -3.781651002E+01  4.283504789E+01  0.000000000E+00  0.00000E+00  9.000E+00
#pdf   2 -2 0.22431185E-02 0.26764002E-01 0.10072679E+03 0.11714241E+01 0.29388715E+00
#rwgt            1           7   359.81248345242909         54217137    18506702           0
</event>
<event>
      6  10013  3.31628E+03  4.68877E+00 -1.00000E+00  2.48110E-01
      21    -1     0     0   511   501  0.000000000E+00  0.000000000E+00  1.120387239E+01  1.120387239E+01  0.000000000E+00  0.00000E+00  9.000E+00
       2    -1     0     0   501     0  0.000000000E+00  0.000000000E+00 -1.634104795E+03  1.634104795E+03  0.000000000E+00  0.00000E+00  9.000E+00
      23     2     1     2     0     0 -4.400385644E+00 -1.618997440E+00 -1.632354494E+03  1.634756200E+03  8.845708044E+01  0.00000E+00  9.000E+00
      13     1     3     3     0     0  2.455974522E+01  3.444852699E+01 -7.630369047E+02  7.642088792E+02  1.056583668E-01  0.00000E+00  9.000E+00
     -13     1     3     3     0     0 -2.896013086E+01 -3.606752443E+01 -8.693175897E+02  8.705473212E+02  1.056583668E-01  0.00000E+00  9.000E+00
       2     1     1     2   511     0  4.400385644E+00  1.618997440E+00  9.453571588E+00  1.055246712E+01  0.000000000E+00  0.00000E+00  9.000E+00
#pdf  -2  2 0.18448763E-03 0.25096389E+00 0.88457080E+02 0.27212330E+01 0.41803831E+00
#rwgt            1           4   1587.9435183409676         54217137    18506760           0
</event>
<event>
      6  10013  3.31628E+03  1.45424E+01 -1.00000E+00  1.78612E-01
      -2    -1     0     0     0   511  0.000000000E+00  0.000000000E+00  6.542083912E+00  6.542083912E+00  0.000000000E+00  0.00000E+00  9.000E+00
       2    -1     0     0   501     0  0.000000000E+00  0.000000000E+00 -4.610314493E+02  4.610314493E+02  0.000000000E+00  0.00000E+00  9.000E+00
      23     2     1     2     0     0  5.563375086E+00  1.343618687E+01 -4.233244563E+02  4.331826359E+02  9.073102266E+01  0.00000E+00  9.000E+00
      13     1     3     3     0     0  4.358696439E+01  8.760662592E+00 -1.305558626E+02  1.379181536E+02  1.056583668E-01  0.00000E+00  9.000E+00
     -13     1     3     3     0     0 -3.802358930E+01  4.675524276E+00 -2.927685937E+02  2.952644823E+02  1.056583668E-01  0.00000E+00  9.000E+00
      21     1     1     2   501   511 -5.563375086E+00 -1.343618687E+01 -3.116490901E+01  3.439089725E+01  4.768371582E-07  0.00000E+00  9.000E+00
#pdf  -2  2 0.74876465E-03 0.65054834E-01 0.90731023E+02 0.16213339E+01 0.62461404E+00
#rwgt            1           4   933.04841951647563         54217137    18506938           0
</event>
<event>
      6  10013  3.31628E+03  1.45290E+01 -1.00000E+00  1.78651E-01
       1    -1     0     0   501     0  0.000000000E+00  0.000000000E+00  1.027995574E+02  1.027995574E+02  0.000000000E+00  0.00000E+00  9.000E+00
      21    -1     0     0   511   501  0.000000000E+00  0.000000000E+00 -2.872939060E+01  2.872939060E+01  0.000000000E+00  0.00000E+00  9.000E+00
      23     2     1     2     0     0  3.612606028E-01 -1.452448551E+01  7.181322530E+01  1.168257179E+02  9.099460342E+01  0.00000E+00  9.000E+00
      13     1     3     3     0     0  7.545856289E+00 -9.405386149E+00  9.305061812E+01  9.382872658E+01  1.056583668E-01  0.00000E+00  9.000E+00
     -13     1     3     3     0     0 -7.184595686E+00 -5.119099365E+00 -2.123739282E+01  2.299699134E+01  1.056583668E-01  0.00000E+00  9.000E+00
       1     1     1     2   511     0 -3.612606028E-01  1.452448551E+01  2.256941452E+00  1.470323003E+01  0.000000000E+00  0.00000E+00  9.000E+00
#pdf   1 -1 0.14329183E-01 0.34191892E-02 0.90994603E+02 0.60765525E+00 0.88096107E+00
#rwgt            1           6   1133.2821467644831         54217137    18507036           0
</event>
<event>
      6  10013  3.31628E+03  3.81854E+00 -1.00000E+00  2.68201E-01
      -3    -1     0     0     0   501  0.000000000E+00  0.000000000E+00  1.011686105E+02  1.011686105E+02  0.000000000E+00  0.00000E+00  9.000E+00
      21    -1     0     0   501   511  0.000000000E+00  0.000000000E+00 -2.468009273E+01  2.468009273E+01  0.000000000E+00  0.00000E+00  9.000E+00
      23     2     1     2     0     0  3.262709248E+00 -1.983930869E+00  7.839713964E+01  1.215797348E+02  9.284901269E+01  0.00000E+00  9.000E+00
      13     1     3     3     0     0 -2.733745664E+00 -4.585505505E+01  2.530132281E+01  5.244356528E+01  1.056583668E-01  0.00000E+00  9.000E+00
     -13     1     3     3     0     0  5.996454912E+00  4.387112418E+01  5.309581683E+01  6.913616953E+01  1.056583668E-01  0.00000E+00  9.000E+00
      -3     1     1     2     0   511 -3.262709248E+00  1.983930869E+00 -1.908621916E+00  4.268968371E+00  0.000000000E+00  0.00000E+00  9.000E+00
#pdf  -3  3 0.15369844E-01 0.33189325E-02 0.92849013E+02 0.38041915E+00 0.84810925E+00
#rwgt            1           3   353.24228966855765         54217137    18507119           0
</event>
<event>
      6  10013  3.31628E+03  4.32339E+00 -1.00000E+00  2.55659E-01
       2    -1     0     0   501     0  0.000000000E+00  0.000000000E+00  1.087143045E+03  1.087143045E+03  0.000000000E+00  0.00000E+00  9.000E+00
      -2    -1     0     0     0   511  0.000000000E+00  0.000000000E+00 -2.859036091E+00  2.859036091E+00  0.000000000E+00  0.00000E+00  9.000E+00
      23     2     1     2     0     0  2.527876395E+00 -3.507354656E+00  1.079871993E+03  1.083824899E+03  9.238072561E+01  0.00000E+00  9.000E+00
      13     1     3     3     0     0 -2.234062926E+01  7.185010378E+00  7.494511186E+01  7.853348996E+01  1.056583668E-01  0.00000E+00  9.000E+00
     -13     1     3     3     0     0  2.486850565E+01 -1.069236503E+01  1.004926881E+03  1.005291409E+03  1.056583668E-01  0.00000E+00  9.000E+00
      21     1     1     2   501   511 -2.527876395E+00  3.507354656E+00  4.412015911E+00  6.177182218E+00  5.960464478E-08  0.00000E+00  9.000E+00
#pdf   2 -2 0.16625625E+00 0.30373724E-03 0.92380726E+02 0.53465562E+00 0.22893391E+01
#rwgt            1           7   1286.3979904404414         54217137    18507208           0
</event>
<event>
      6  10013  3.31628E+03  3.03750E+00 -1.00000E+00  2.95103E-01
      -1    -1     0     0     0   511  0.000000000E+00  0.000000000E+00  1.389704586E-01  1.389704586E-01  0.000000000E+00  0.00000E+00  9.000E+00
       1    -1     0     0   501     0  0.000000000E+00  0.000000000E+00 -1.775344033E+03  1.775344033E+03  0.000000000E+00  0.00000E+00  9.000E+00
      23     2     1     2     0     0 -2.378645796E+00  1.889038297E+00 -1.723769259E+03  1.723957589E+03  2.529989925E+01  0.00000E+00  9.000E+00
      13     1     3     3     0     0  2.251865305E+00 -3.416408791E+00 -4.818723398E+01  4.836076332E+01  1.056583668E-01  0.00000E+00  9.000E+00
     -13     1     3     3     0     0 -4.630511101E+00  5.305447088E+00 -1.675582025E+03  1.675596825E+03  1.056583668E-01  0.00000E+00  9.000E+00
      21     1     1     2   501   511  2.378645796E+00 -1.889038297E+00 -5.143580365E+01  5.152541430E+01  2.023048729E-06  0.00000E+00  9.000E+00
#pdf  -1  1 0.14383649E-04 0.26331876E+00 0.25299899E+02 0.42814253E+01 0.19098849E+00
#rwgt            1           5   374.68116467718903         54217137    18507348           0
</event>
<event>
      6  10013  3.31628E+03  8.08935E+00 -1.00000E+00  2.06976E-01
       2    -1     0     0   501     0  0.000000000E+00  0.000000000E+00  4.325470319E+00  4.325470319E+00  0.000000000E+00  0.00000E+00  9.000E+00
      -2    -1     0     0     0   511  0.000000000E+00  0.000000000E+00 -1.462460517E+02  1.462460517E+02  0.000000000E+00  0.00000E+00  9.000E+00
      23     2     1     2     0     0  5.788644963E+00 -5.650583523E+00 -6.509362291E+01  7.331986150E+01  3.275950003E+01  0.00000E+00  9.000E+00
      13     1     3     3     0     0  3.125384545E+00 -1.322558368E+01 -8.221452436E+00  1.588356182E+01  1.056583668E-01  0.00000E+00  9.000E+00
     -13     1     3     3     0     0  2.663260418E+00  7.575000153E+00 -5.687217047E+01  5.743629968E+01  1.056583668E-01  0.00000E+00  9.000E+00
      21     1     1     2   501   511 -5.788644963E+00  5.650583523E+00 -7.682695847E+01  7.725166052E+01  9.536743164E-07  0.00000E+00  9.000E+00
#pdf   2 -2 0.61433515E-03 0.10336713E-01 0.32759500E+02 0.14704741E+01 0.47027578E+00
#rwgt            1           7   554.84997243711337         54217137    18507458           0
</event>
<event>
      6  10013  3.31628E+03  2.13130E+00 -1.00000E+00  3.50460E-01
      -1    -1     0     0     0   511  0.000000000E+00  0.000000000E+00  4.892269600E+01  4.892269600E+01  0.000000000E+00  0.00000E+00  9.000E+00
       1    -1     0     0   501     0  0.000000000E+00  0.000000000E+00 -4.006253278E+01  4.006253278E+01  0.000000000E+00  0.00000E+00  9.000E+00
      23     2     1     2     0     0 -2.117698689E+00 -2.403640895E-01  6.409460517E+00  8.573740391E+01  8.547092384E+01  0.00000E+00  9.000E+00
      13     1     3     3     0     0 -3.840570264E+01  1.216015309E+01  2.009675561E+01  4.501952985E+01  1.056583668E-01  0.00000E+00  9.000E+00
     -13     1     3     3     0     0  3.628800395E+01 -1.240051718E+01 -1.368729509E+01  4.071787406E+01  1.056583668E-01  0.00000E+00  9.000E+00
      21     1     1     2   501   511  2.117698689E+00  2.403640895E-01  2.450702705E+00  3.247824869E+00  2.980232239E-08  0.00000E+00  9.000E+00
#pdf  -1  1 0.70860176E-02 0.61002532E-02 0.85470924E+02 0.63346887E+00 0.78634779E+00
#rwgt            1           5   464.85850063798233         54217137    18507525           0
</event>
<event>
      6  10013  3.31628E+03  8.50390E+00 -1.00000E+00  2.04198E-01
      21    -1     0     0   501   511  0.000000000E+00  0.000000000E+00  8.054982296E+01  8.054982296E+01  0.000000000E+00  0.00000E+00  9.000E+00
      -3    -1     0     0     0   501  0.000000000E+00  0.000000000E+00 -1.154993608E+01  1.154993608E+01  0.000000000E+00  0.00000E+00  9.000E+00
      23     2     1     2     0     0  1.913147734E+00 -8.285906649E+00  1.729592682E+00  2.429408919E+01  2.269129558E+01  0.00000E+00  9.000E+00
      13     1     3     3     0     0  9.335926828E+00 -7.065085349E+00  8.262529105E+00  1.433023069E+01  1.056583668E-01  0.00000E+00  9.000E+00
     -13     1     3     3     0     0 -7.422779094E+00 -1.220821299E+00 -6.532936423E+00  9.963858496E+00  1.056583668E-01  0.00000E+00  9.000E+00
      -3     1     1     2     0   511 -1.913147734E+00  8.285906649E+00  6.727029420E+01  6.780566986E+01  0.000000000E+00  0.00000E+00  9.000E+00
#pdf   3 -3 0.18745088E-02 0.16253406E-02 0.22691296E+02 0.84735306E+00 0.89229674E+00
#rwgt            1           8   133.57031303466724         54217137    18507694           0
</event>
<event>
      6  10013  3.31628E+03  3.14444E+00 -1.00000E+00  2.90672E-01
      21    -1     0     0   511   501  0.000000000E+00  0.000000000E+00  1.876108648E-01  1.876108648E-01  0.000000000E+00  0.00000E+00  9.000E+00
       2    -1     0     0   501     0  0.000000000E+00  0.000000000E+00 -2.350765458E+03  2.350765458E+03  0.000000000E+00  0.00000E+00  9.000E+00
      23     2     1     2     0     0 -1.914517788E+00 -2.494414357E+00 -2.319803365E+03  2.320018360E+03  3.142689164E+01  0.00000E+00  9.000E+00
      13     1     3     3     0     0  8.964503169E+00 -1.299655496E+01 -1.422126337E+03  1.422213979E+03  1.056583668E-01  0.00000E+00  9.000E+00
     -13     1     3     3     0     0 -1.087902096E+01  1.050214060E+01 -8.976770286E+02  8.978043812E+02  1.056583668E-01  0.00000E+00  9.000E+00
       2     1     1     2   511     0  1.914517788E+00  2.494414357E+00 -3.077448167E+01  3.093470871E+01  0.000000000E+00  0.00000E+00  9.000E+00
#pdf  -2  2 0.16455887E-04 0.35513613E+00 0.31426892E+02 0.44635532E+01 0.30628116E+00
#rwgt            1           4   5923.7758607816158         54217137    18507733           0
</event>
<event>
      6  10013  3.31628E+03  2.12407E+01 -1.00000E+00  1.64200E-01
       5    -1     0     0   501     0  0.000000000E+00  0.000000000E+00  2.849937383E+01  2.849937383E+01  0.000000000E+00  0.00000E+00  9.000E+00
      21    -1     0     0   511   501  0.000000000E+00  0.000000000E+00 -6.292267482E+02  6.292267482E+02  0.000000000E+00  0.00000E+00  9.000E+00
      23     2     1     2     0     0 -2.123948482E+01 -2.258770296E-01 -4.873435799E+01  1.053245861E+02  9.092339665E+01  0.00000E+00  9.000E+00
      13     1     3     3     0     0  3.450837590E+01 -1.038894383E+01 -1.289751152E+01  3.827682234E+01  1.056583668E-01  0.00000E+00  9.000E+00
     -13     1     3     3     0     0 -5.574786072E+01  1.016306680E+01 -3.583684646E+01  6.704776379E+01  1.056583668E-01  0.00000E+00  9.000E+00
       5     1     1     2   511     0  2.123948482E+01  2.258770296E-01 -5.519930164E+02  5.524015359E+02  0.000000000E+00  0.00000E+00  9.000E+00
#pdf   5 -5 0.42389624E-02 0.11539979E-01 0.90923397E+02 0.38972843E+00 0.19824559E+00
#rwgt            1          10   133.62478556724818         54217137    18507818           0
</event>
<event>
      6  10013  3.31628E+03  3.13742E+01 -1.00000E+00  1.51667E-01
      21    -1     0     0   511   501  0.000000000E+00  0.000000000E+00  5.271274648E+01  5.271274648E+01  0.000000000E+00  0.00000E+00  9.000E+00
       4    -1     0     0   501     0  0.000000000E+00  0.000000000E+00 -1.565769040E+02  1.565769040E+02  0.000000000E+00  0.00000E+00  9.000E+00
      23     2     1     2     0     0 -2.710146572E+01 -1.580673111E+01 -1.479829154E+02  1.551527223E+02  3.448306550E+01  0.00000E+00  9.000E+00
      13     1     3     3     0     0 -2.181025852E+01 -1.706599210E+01 -1.470478356E+02  1.496329262E+02  1.056583668E-01  0.00000E+00  9.000E+00
     -13     1     3     3     0     0 -5.291207197E+00  1.259260981E+00 -9.350797473E-01  5.519796160E+00  1.056583668E-01  0.00000E+00  9.000E+00
       4     1     1     2   511     0  2.710146572E+01  1.580673111E+01  4.411875787E+01  5.413692814E+01  0.000000000E+00  0.00000E+00  9.000E+00
#pdf  -4  4 0.40794137E-03 0.17247545E-01 0.34483065E+02 0.13184986E+01 0.20908617E+00
#rwgt            1           2   231.09171143809880         54217137    18508039           0
</event>
<event>
      6  10013  3.31628E+03  4.12286E+00 -1.00000E+00  2.60307E-01
      21    -1     0     0   501   511  0.000000000E+00  0.000000000E+00  2.507765687E+01  2.507765687E+01  0.000000000E+00  0.00000E+00  9.000E+00
      -2    -1     0     0     0   501  0.000000000E+00  0.000000000E+00 -2.098668303E+01  2.098668303E+01  0.000000000E+00  0.00000E+00  9.000E+00
      23     2     1     2     0     0 -3.574421915E+00  2.054629043E+00 -4.140090407E+00  3.685844987E+01  3.639240285E+01  0.00000E+00  9.000E+00
      13     1     3     3     0     0  9.038581035E+00 -8.505283972E+00 -1.316664295E+01  1.809440391E+01  1.056583668E-01  0.00000E+00  9.000E+00
     -13     1     3     3     0     0 -1.261300295E+01  1.055991301E+01  9.026552539E+00  1.876404596E+01  1.056583668E-01  0.00000E+00  9.000E+00
      -2     1     1     2     0   511  3.574421915E+00 -2.054629043E+00  8.231064250E+00  9.205890028E+00  0.000000000E+00  0.00000E+00  9.000E+00
#pdf   2 -2 0.25007999E-02 0.31336884E-02 0.36392403E+02 0.98161724E+00 0.79523246E+00
#rwgt            1           7   685.21716272066487         54217137    18508096           0
</event>
<event>
      6  10013  3.31628E+03  1.41937E+00 -1.00000E+00  4.63999E-01
      -2    -1     0     0     0   501  0.000000000E+00  0.000000000E+00  4.708634590E-01  4.708634590E-01  0.000000000E+00  0.00000E+00  9.000E+00
       2    -1     0     0   511     0  0.000000000E+00  0.000000000E+00 -5.688654747E+02  5.688654747E+02  0.000000000E+00  0.00000E+00  9.000E+00
      23     2     1     2     0     0 -1.915348814E-01 -1.406385245E+00 -4.093855109E+02  4.103209031E+02  2.765379462E+01  0.00000E+00  9.000E+00
      13     1     3     3     0     0  8.013865346E+00  3.931155338E+00 -4.925628655E+01  5.005865508E+01  1.056583668E-01  0.00000E+00  9.000E+00
     -13     1     3     3     0     0 -8.205400227E+00 -5.337540582E+00 -3.601292244E+02  3.602622480E+02  1.056583668E-01  0.00000E+00  9.000E+00
      21     1     1     2   511   501  1.915348814E-01  1.406385245E+00 -1.590091003E+02  1.590154351E+02  0.000000000E+00  0.00000E+00  9.000E+00
#pdf  -2  2 0.71858654E-04 0.62971448E-01 0.27653795E+02 0.27236516E+01 0.62828042E+00
#rwgt            1           4   2422.1349992737673         54217137    18508207           0
</event>
<event>
      6  10013  3.31628E+03  5.05075E+01 -1.00000E+00  1.38797E-01
      21    -1     0     0   511   501  0.000000000E+00  0.000000000E+00  3.715321388E+01  3.715321388E+01  0.000000000E+00  0.00000E+00  9.000E+00
       2    -1     0     0   501     0  0.000000000E+00  0.000000000E+00 -6.705575368E+02  6.705575368E+02  0.000000000E+00  0.00000E+00  9.000E+00
      23     2     1     2     0     0  4.015118445E+01  3.064123493E+01 -6.503867032E+02  6.544246912E+02  5.213261826E+01  0.00000E+00  9.000E+00
      13     1     3     3     0     0  1.863040204E+01  4.035708723E+01 -3.038019711E+02  3.070365372E+02  1.056583668E-01  0.00000E+00  9.000E+00
     -13     1     3     3     0     0  2.152078241E+01 -9.715852306E+00 -3.465847320E+02  3.473881539E+02  1.056583668E-01  0.00000E+00  9.000E+00
       2     1     1     2   511     0 -4.015118445E+01 -3.064123493E+01  1.698238030E+01  5.328605944E+01  0.000000000E+00  0.00000E+00  9.000E+00
#pdf  -2  2 0.22308729E-03 0.72087098E-01 0.52132618E+02 0.22519110E+01 0.62450880E+00
#rwgt            1           4   3090.2947247032107         54217137    18508455           0
</event>
<event>
      6  10013  3.31628E+03  2.76887E+00 -1.00000E+00  3.07699E-01
       2    -1     0     0   501     0  0.000000000E+00  0.000000000E+00  7.107068267E+02  7.107068267E+02  0.000000000E+00  0.00000E+00  9.000E+00
      -2    -1     0     0     0   511  0.000000000E+00  0.000000000E+00 -3.001216076E+00  3.001216076E+00  0.000000000E+00  0.00000E+00  9.000E+00
      23     2     1     2     0     0 -2.341117701E+00 -1.478442706E+00  6.962349434E+02  7.019079228E+02  8.901667848E+01  0.00000E+00  9.000E+00
      13     1     3     3     0     0  2.005211231E+01 -3.765219152E+01  2.463885313E+02  2.500541826E+02  1.056583668E-01  0.00000E+00  9.000E+00
     -13     1     3     3     0     0 -2.239323001E+01  3.617374881E+01  4.498464122E+02  4.518537402E+02  1.056583668E-01  0.00000E+00  9.000E+00
      21     1     1     2   501   511  2.341117701E+00  1.478442706E+00  1.147066716E+01  1.180011992E+01  2.384185791E-07  0.00000E+00  9.000E+00
#pdf   2 -2 0.10749746E+00 0.43617208E-03 0.89016678E+02 0.59681083E+00 0.19859396E+01
#rwgt            1           7   1331.7792792955840         54217137    18508482           0
</event>
<event>
      6  10013  3.31628E+03  3.41094E+01 -1.00000E+00  1.49232E-01
       2    -1     0     0   501     0  0.000000000E+00  0.000000000E+00  2.008531713E+02  2.008531713E+02  0.000000000E+00  0.00000E+00  9.000E+00
      21    -1     0     0   511   501  0.000000000E+00  0.000000000E+00 -2.322328317E+01  2.322328317E+01  0.000000000E+00  0.00000E+00  9.000E+00
      23     2     1     2     0     0  3.142020743E+01 -1.327495105E+01  1.554712390E+02  1.834014069E+02  9.111155886E+01  0.00000E+00  9.000E+00
      13     1     3     3     0     0  5.195437893E+01 -3.446914320E+01  1.309398876E+02  1.450263585E+02  1.056583668E-01  0.00000E+00  9.000E+00
     -13     1     3     3     0     0 -2.053417151E+01  2.119419215E+01  2.453135135E+01  3.837504845E+01  1.056583668E-01  0.00000E+00  9.000E+00
       2     1     1     2   511     0 -3.142020743E+01  1.327495105E+01  2.215864917E+01  4.067504755E+01  0.000000000E+00  0.00000E+00  9.000E+00
#pdf   2 -2 0.24412464E-01 0.20120957E-02 0.91111559E+02 0.66479536E+00 0.10904973E+01
#rwgt            1           7   548.80178296928921         54217137    18508597           0
</event>
<event>
      6  10013  3.31628E+03  8.28263E+00 -1.00000E+00  2.05654E-01
      21    -1     0     0   511   501  0.000000000E+00  0.000000000E+00  2.145455740E+01  2.145455740E+01  0.000000000E+00  0.00000E+00  9.000E+00
       2    -1     0     0   501     0  0.000000000E+00  0.000000000E+00 -1.489702986E+02  1.489702986E+02  0.000000000E+00  0.00000E+00  9.000E+00
      23     2     1     2     0     0 -6.974424557E+00 -4.467595084E+00 -1.305363850E+02  1.616086044E+02  9.491570573E+01  0.00000E+00  9.000E+00
      13     1     3     3     0     0 -2.337829784E+01 -1.507250155E+01  1.765872513E+00  2.787211119E+01  1.056583668E-01  0.00000E+00  9.000E+00
     -13     1     3     3     0     0  1.640387328E+01  1.060490647E+01 -1.323022576E+02  1.337364932E+02  1.056583668E-01  0.00000E+00  9.000E+00
       2     1     1     2   511     0  6.974424557E+00  4.467595084E+00  3.020643812E+00  8.816251628E+00  0.000000000E+00  0.00000E+00  9.000E+00
#pdf  -2  2 0.23811220E-02 0.22387614E-01 0.94915706E+02 0.10212903E+01 0.67175571E+00
#rwgt            1           4   437.96589954307984         54217137    18508649           0
</event>
<event>
      6  10013  3.31628E+03  2.57323E+01 -1.00000E+00  1.57780E-01
       2    -1     0     0   511     0  0.000000000E+00  0.000000000E+00  3.015864928E+01  3.015864928E+01  0.000000000E+00  0.00000E+00  9.000E+00
      -2    -1     0     0     0   501  0.000000000E+00  0.000000000E+00 -1.426344152E+02  1.426344152E+02  0.000000000E+00  0.00000E+00  9.000E+00
      23     2     1     2     0     0  1.108809065E+01  2.322082622E+01 -1.095114012E+02  1.468905552E+02  9.445599882E+01  0.00000E+00  9.000E+00
      13     1     3     3     0     0  4.711915829E+01  3.442590901E+00 -8.943479955E+01  1.011467303E+02  1.056583668E-01  0.00000E+00  9.000E+00
     -13     1     3     3     0     0 -3.603106764E+01  1.977823532E+01 -2.007660160E+01  4.574382497E+01  1.056583668E-01  0.00000E+00  9.000E+00
      21     1     1     2   511   501 -1.108809065E+01 -2.322082622E+01 -2.964364741E+00  2.590250921E+01  3.449868233E-07  0.00000E+00  9.000E+00
#pdf   2 -2 0.27742159E-02 0.19029708E-01 0.94455999E+02 0.10844509E+01 0.36503775E+00
#rwgt            1           7   262.10222505051217         54217137    18508730           0
</event>
<event>
      6  10013  3.31628E+03  2.53297E+00 -1.00000E+00  3.20946E-01
      21    -1     0     0   511   501  0.000000000E+00  0.000000000E+00  5.563862060E+01  5.563862060E+01  0.000000000E+00  0.00000E+00  9.000E+00
       3    -1     0     0   501     0  0.000000000E+00  0.000000000E+00 -4.121923052E+01  4.121923052E+01  0.000000000E+00  0.00000E+00  9.000E+00
      23     2     1     2     0     0  1.127616341E+00  2.268128466E+00  9.974149009E+00  9.174159334E+01  9.116260404E+01  0.00000E+00  9.000E+00
      13     1     3     3     0     0  4.556904833E+01 -3.150603496E+00  1.090340968E+01  4.696126036E+01  1.056583668E-01  0.00000E+00  9.000E+00
     -13     1     3     3     0     0 -4.444143199E+01  5.418731962E+00 -9.292606752E-01  4.478033299E+01  1.056583668E-01  0.00000E+00  9.000E+00
       3     1     1     2   511     0 -1.127616341E+00 -2.268128466E+00  4.445241078E+00  5.116257772E+00  0.000000000E+00  0.00000E+00  9.000E+00
#pdf  -3  3 0.78212694E-02 0.62873769E-02 0.91162604E+02 0.55822899E+00 0.62429989E+00
#rwgt            1           3   315.51009816796648         54217137    18508765           0
</event>
<event>
      6  10013  3.31628E+03  1.38683E+01 -1.00000E+00  1.80605E-01
      -2    -1     0     0     0   511  0.000000000E+00  0.000000000E+00  4.544157079E+01  4.544157079E+01  0.000000000E+00  0.00000E+00  9.000E+00
       2    -1     0     0   501     0  0.000000000E+00  0.000000000E+00 -1.276488130E+02  1.276488130E+02  0.000000000E+00  0.00000E+00  9.000E+00
      23     2     1     2     0     0  1.386830692E+01 -2.625480169E-02 -1.092628331E+02  1.426874954E+02  9.071396805E+01  0.00000E+00  9.000E+00
      13     1     3     3     0     0  3.434920447E+01  1.199962476E+01 -6.182772031E+00  3.690659394E+01  1.056583668E-01  0.00000E+00  9.000E+00
     -13     1     3     3     0     0 -2.048089755E+01 -1.202587956E+01 -1.030800611E+02  1.057809014E+02  1.056583668E-01  0.00000E+00  9.000E+00
      21     1     1     2   501   511 -1.386830692E+01  2.625480169E-02  2.705559092E+01  3.040288845E+01  3.371747881E-07  0.00000E+00  9.000E+00
#pdf  -2  2 0.25415980E-02 0.19158203E-01 0.90713968E+02 0.98746276E+00 0.68323845E+00
#rwgt            1           4   561.18469525805017         54217137    18509011           0
</event>
<event>
      6  10013  3.31628E+03  1.14346E+01 -1.00000E+00  1.89205E-01
      21    -1     0     0   511   501  0.000000000E+00  0.000000000E+00  5.322309271E+00  5.322309271E+00  0.000000000E+00  0.00000E+00  9.000E+00
       1    -1     0     0   501     0  0.000000000E+00  0.000000000E+00 -5.829270664E+02  5.829270664E+02  0.000000000E+00  0.00000E+00  9.000E+00
      23     2     1     2     0     0  8.343843977E+00  7.818602466E+00 -5.582097873E+02  5.657345998E+02  9.125086584E+01  0.00000E+00  9.000E+00
      13     1     3     3     0     0 -3.820139377E+01  1.889274777E+01 -3.143321641E+02  3.172081382E+02  1.056583668E-01  0.00000E+00  9.000E+00
     -13     1     3     3     0     0  4.654523775E+01 -1.107414531E+01 -2.438776232E+02  2.485264616E+02  1.056583668E-01  0.00000E+00  9.000E+00
       1     1     1     2   511     0 -8.343843977E+00 -7.818602466E+00 -1.939496979E+01  2.251477581E+01  0.000000000E+00  0.00000E+00  9.000E+00
#pdf  -1  1 0.57434001E-03 0.85786354E-01 0.91250866E+02 0.18040088E+01 0.38219924E+00
#rwgt            1           5   1021.1290353951607         54217137    18509096           0
</event>
<event>
      6  10013  3.31628E+03  2.03304E+00 -1.00000E+00  3.59573E-01
       2    -1     0     0   511     0  0.000000000E+00  0.000000000E+00  1.003063682E+03  1.003063682E+03  0.000000000E+00  0.00000E+00  9.000E+00
      -2    -1     0     0     0   501  0.000000000E+00  0.000000000E+00 -1.969152127E-01  1.969152127E-01  0.000000000E+00  0.00000E+00  9.000E+00
      23     2     1     2     0     0 -2.621306047E-01 -2.016066146E+00  8.383469374E+02  8.387282067E+02  2.520484456E+01  0.00000E+00  9.000E+00
      13     1     3     3     0     0  4.996689542E+00  4.160986022E+00  6.223272177E+01  6.257158727E+01  1.056583668E-01  0.00000E+00  9.000E+00
     -13     1     3     3     0     0 -5.258820147E+00 -6.177052168E+00  7.761142156E+02  7.761566195E+02  1.056583668E-01  0.00000E+00  9.000E+00
      21     1     1     2   511   501  2.621306047E-01  2.016066146E+00  1.645198294E+02  1.645323904E+02  1.907348633E-06  0.00000E+00  9.000E+00
#pdf   2 -2 0.12858815E+00 0.29233471E-04 0.25204845E+02 0.60856018E+00 0.34657834E+01
#rwgt            1           7   2211.2873444754955         54217137    18509324           0
</event>
<event>
      6  10013  3.31628E+03  7.08556E+00 -1.00000E+00  2.14740E-01
      21    -1     0     0   511   501  0.000000000E+00  0.000000000E+00  1.026985510E+01  1.026985510E+01  0.000000000E+00  0.00000E+00  9.000E+00
       2    -1     0     0   501     0  0.000000000E+00  0.000000000E+00 -2.509266026E+02  2.509266026E+02  0.000000000E+00  0.00000E+00  9.000E+00
      23     2     1     2     0     0  1.103412034E+00  6.999115891E+00 -2.403207327E+02  2.541029362E+02  8.224379928E+01  0.00000E+00  9.000E+00
      13     1     3     3     0     0  2.492331745E+01  1.129589188E+01 -2.221700765E+02  2.238488843E+02  1.056583668E-01  0.00000E+00  9.000E+00
     -13     1     3     3     0     0 -2.381990542E+01 -4.296775988E+00 -1.815065611E+01  3.025405194E+01  1.056583668E-01  0.00000E+00  9.000E+00
       2     1     1     2   511     0 -1.103412034E+00 -6.999115891E+00 -3.360148918E-01  7.093521508E+00  0.000000000E+00  0.00000E+00  9.000E+00
#pdf  -2  2 0.10562568E-02 0.37892225E-01 0.82243799E+02 0.13940414E+01 0.64155603E+00
#rwgt            1           4   449.74398147514364         54217137    18509475           0
</event>
<event>
      6  10013  3.31628E+03  7.30522E+00 -1.00000E+00  2.12897E-01
      21    -1     0     0   511   501  0.000000000E+00  0.000000000E+00  4.748316379E+00  4.748316379E+00  0.000000000E+00  0.00000E+00  9.000E+00
       2    -1     0     0   501     0  0.000000000E+00  0.000000000E+00 -2.220352183E+03  2.220352183E+03  0.000000000E+00  0.00000E+00  9.000E+00
      23     2     1     2     0     0 -4.600933982E+00 -5.674291066E+00 -2.216078358E+03  2.217779891E+03  8.655050059E+01  0.00000E+00  9.000E+00
      13     1     3     3     0     0 -1.303997970E+01 -2.005174918E+01 -1.743088320E+02  1.759423025E+02  1.056583668E-01  0.00000E+00  9.000E+00
     -13     1     3     3     0     0  8.439045718E+00  1.437745812E+01 -2.041769526E+03  2.041837588E+03  1.056583668E-01  0.00000E+00  9.000E+00
       2     1     1     2   511     0  4.600933982E+00  5.674291066E+00  4.744910600E-01  7.320608880E+00  0.000000000E+00  0.00000E+00  9.000E+00
#pdf  -2  2 0.13042339E-03 0.33985759E+00 0.86550501E+02 0.30648411E+01 0.28827944E+00
#rwgt            1           4   1691.9632914589361         54217137    18509620           0
</event>
<event>
      6  10013  3.31628E+03  2.84662E+01 -1.00000E+00  1.54604E-01
      21    -1     0     0   511   501  0.000000000E+00  0.000000000E+00  7.416039097E-01  7.416039097E-01  0.000000000E+00  0.00000E+00  9.000E+00
       2    -1     0     0   501     0  0.000000000E+00  0.000000000E+00 -1.466474665E+03  1.466474665E+03  0.000000000E+00  0.00000E+00  9.000E+00
      23     2     1     2     0     0 -2.771064900E+01  6.514975711E+00 -6.942457896E+02  6.952040054E+02  2.282690815E+01  0.00000E+00  9.000E+00
      13     1     3     3     0     0 -5.279556485E+00  1.132242825E+01 -3.300851253E+02  3.303214680E+02  1.056583668E-01  0.00000E+00  9.000E+00
     -13     1     3     3     0     0 -2.243109251E+01 -4.807452541E+00 -3.641606643E+02  3.648825374E+02  1.056583668E-01  0.00000E+00  9.000E+00
       2     1     1     2   511     0  2.771064900E+01 -6.514975711E+00 -7.714872715E+02  7.720122635E+02  0.000000000E+00  0.00000E+00  9.000E+00
#pdf  -2  2 0.46112001E-04 0.66864178E-01 0.22826908E+02 0.29169030E+01 0.62849423E+00
#rwgt            1           4   1624.6759126281936         54217137    18509755           0
</event>
<event>
      6  10013  3.31628E+03  4.47539E+00 -1.00000E+00  2.52385E-01
      -3    -1     0     0     0   511  0.000000000E+00  0.000000000E+00  3.333196060E-01  3.333196060E-01  0.000000000E+00  0.00000E+00  9.000E+00
       3    -1     0     0   501     0  0.000000000E+00  0.000000000E+00 -1.440074181E+03  1.440074181E+03  0.000000000E+00  0.00000E+00  9.000E+00
      23     2     1     2     0     0  1.811881760E+00  4.092210200E+00 -1.411473313E+03  1.411787868E+03  2.946253115E+01  0.00000E+00  9.000E+00
      13     1     3     3     0     0  1.315290161E+01  6.236995217E+00 -1.107215200E+03  1.107310891E+03  1.056583668E-01  0.00000E+00  9.000E+00
     -13     1     3     3     0     0 -1.134101985E+01 -2.144785017E+00 -3.042581131E+02  3.044769768E+02  1.056583668E-01  0.00000E+00  9.000E+00
      21     1     1     2   501   511 -1.811881760E+00 -4.092210200E+00 -2.826754790E+01  2.861963250E+01  1.011524364E-06  0.00000E+00  9.000E+00
#pdf  -3  3 0.23922095E-04 0.21471095E+00 0.29462531E+02 0.37947294E+01 0.14881071E-01
#rwgt            1           3   17.588605461860983         54217137    18509812           0
</event>
<event>
      6  10013  3.31628E+03  3.01278E+01 -1.00000E+00  1.52877E-01
       1    -1     0     0   501     0  0.000000000E+00  0.000000000E+00  1.125462729E+03  1.125462729E+03  0.000000000E+00  0.00000E+00  9.000E+00
      21    -1     0     0   511   501  0.000000000E+00  0.000000000E+00 -3.646583531E+00  3.646583531E+00  0.000000000E+00  0.00000E+00  9.000E+00
      23     2     1     2     0     0  1.085481215E+01  2.810443367E+01  9.739751831E+02  9.782297702E+02  8.601244038E+01  0.00000E+00  9.000E+00
      13     1     3     3     0     0  1.428034850E-02  4.605416118E+00  8.971701039E+02  8.971819305E+02  1.056583668E-01  0.00000E+00  9.000E+00
     -13     1     3     3     0     0  1.084053180E+01  2.349901755E+01  7.680507926E+01  8.104783969E+01  1.056583668E-01  0.00000E+00  9.000E+00
       1     1     1     2   511     0 -1.085481215E+01 -2.810443367E+01  1.478409628E+02  1.508795428E+02  0.000000000E+00  0.00000E+00  9.000E+00
#pdf   1 -1 0.14172678E+00 0.30887583E-03 0.86012440E+02 0.30478898E+00 0.22476058E+01
#rwgt            1           6   827.41528344240373         54217137    18509890           0
</event>
<event>
      6  10013  3.31628E+03  7.58657E+00 -1.00000E+00  2.10662E-01
      -4    -1     0     0     0   511  0.000000000E+00  0.000000000E+00  1.749713480E+01  1.749713480E+01  0.000000000E+00  0.00000E+00  9.000E+00
       4    -1     0     0   501     0  0.000000000E+00  0.000000000E+00 -6.434826392E+01  6.434826392E+01  0.000000000E+00  0.00000E+00  9.000E+00
      23     2     1     2     0     0  3.448849972E+00 -6.757322881E+00 -4.756294781E+01  7.422551260E+01  5.647686905E+01  0.00000E+00  9.000E+00
      13     1     3     3     0     0  1.652039185E+00 -3.174700146E+01 -2.400766831E+01  3.983692554E+01  1.056583668E-01  0.00000E+00  9.000E+00
     -13     1     3     3     0     0  1.796810787E+00  2.498967857E+01 -2.355527950E+01  3.438858706E+01  1.056583668E-01  0.00000E+00  9.000E+00
      21     1     1     2   501   511 -3.448849972E+00  6.757322881E+00  7.118186792E-01  7.619886120E+00  2.107342426E-08  0.00000E+00  9.000E+00
#pdf  -4  4 0.20327087E-02 0.92849457E-02 0.56476869E+02 0.77432427E+00 0.34374910E+00
#rwgt            1           2   257.82412521933611         54217137    18509919           0
</event>
<event>
      6  10013  3.31628E+03  1.77198E+00 -1.00000E+00  3.89277E-01
      21    -1     0     0   511   501  0.000000000E+00  0.000000000E+00  1.269098491E+00  1.269098491E+00  0.000000000E+00  0.00000E+00  9.000E+00
       2    -1     0     0   501     0  0.000000000E+00  0.000000000E+00 -3.996265322E+02  3.996265322E+02  0.000000000E+00  0.00000E+00  9.000E+00
      23     2     1     2     0     0  7.406884749E-01  1.609748294E+00 -3.983969483E+02  3.991232113E+02  2.400144860E+01  0.00000E+00  9.000E+00
      13     1     3     3     0     0 -1.496447605E+00  2.049901421E+00 -3.951285838E+02  3.951367489E+02  1.056583668E-01  0.00000E+00  9.000E+00
     -13     1     3     3     0     0  2.237136080E+00 -4.401531268E-01 -3.268364456E+00  3.986462407E+00  1.056583668E-01  0.00000E+00  9.000E+00
       2     1     1     2   511     0 -7.406884749E-01 -1.609748294E+00  3.951454632E-02  1.772419359E+00  0.000000000E+00  0.00000E+00  9.000E+00
#pdf  -2  2 0.55714758E-04 0.61181195E-01 0.24001449E+02 0.28052987E+01 0.62807264E+00
#rwgt            1           4   2621.8703655868226         54217137    18510019           0
</event>
<event>
      6  10013  3.31628E+03  1.92359E+01 -1.00000E+00  1.67735E-01
       2    -1     0     0   511     0  0.000000000E+00  0.000000000E+00  1.127890428E+03  1.127890428E+03  0.000000000E+00  0.00000E+00  9.000E+00
      -2    -1     0     0     0   501  0.000000000E+00  0.000000000E+00 -5.056349846E+00  5.056349846E+00  0.000000000E+00  0.00000E+00  9.000E+00
      23     2     1     2     0     0 -1.397538778E+01 -1.321776241E+01  4.377506013E+02  4.475932991E+02  9.134632815E+01  0.00000E+00  9.000E+00
      13     1     3     3     0     0  2.731081509E+01 -7.803823882E+00  3.420367474E+02  3.432141140E+02  1.056583668E-01  0.00000E+00  9.000E+00
     -13     1     3     3     0     0 -4.128620286E+01 -5.413938525E+00  9.571385391E+01  1.043791851E+02  1.056583668E-01  0.00000E+00  9.000E+00
      21     1     1     2   511   501  1.397538778E+01  1.321776241E+01  6.850834769E+02  6.853534789E+02  1.321449896E-05  0.00000E+00  9.000E+00
#pdf   2 -2 0.66641792E-01 0.74088161E-03 0.91346328E+02 0.62372188E+00 0.16299185E+01
#rwgt            1           7   1297.9579660319071         54217137    18510221           0
</event>
<event>
      6  10013  3.31628E+03  5.56941E+00 -1.00000E+00  2.30533E-01
      21    -1     0     0   511   501  0.000000000E+00  0.000000000E+00  4.176004591E+01  4.176004591E+01  0.000000000E+00  0.00000E+00  9.000E+00
       4    -1     0     0   501     0  0.000000000E+00  0.000000000E+00 -4.662225207E+01  4.662225207E+01  0.000000000E+00  0.00000E+00  9.000E+00
      23     2     1     2     0     0  5.448267876E+00 -1.155289626E+00 -7.777848419E+00  8.209586126E+01  8.153660032E+01  0.00000E+00  9.000E+00
      13     1     3     3     0     0 -2.643402511E+01  2.174983601E+01  1.425144025E+01  3.708001838E+01  1.056583668E-01  0.00000E+00  9.000E+00
     -13     1     3     3     0     0  3.188229299E+01 -2.290512564E+01 -2.202928867E+01  4.501584287E+01  1.056583668E-01  0.00000E+00  9.000E+00
       4     1     1     2   511     0 -5.448267876E+00  1.155289626E+00  2.915642256E+00  6.286436728E+00  0.000000000E+00  0.00000E+00  9.000E+00
#pdf  -4  4 0.57034805E-02 0.68972908E-02 0.81536600E+02 0.48679530E+00 0.43543852E+00
#rwgt            1           2   302.90601420115837         54217137    18510304           0
</event>
<event>
      6  10013  3.31628E+03  9.40271E+00 -1.00000E+00  1.98840E-01
      21    -1     0     0   511   501  0.000000000E+00  0.000000000E+00  7.359684406E+00  7.359684406E+00  0.000000000E+00  0.00000E+00  9.000E+00
       3    -1     0     0   501     0  0.000000000E+00  0.000000000E+00 -4.010507070E+01  4.010507070E+01  0.000000000E+00  0.00000E+00  9.000E+00
      23     2     1     2     0     0 -8.972656396E+00  2.811121696E+00 -2.814552211E+01  3.699719959E+01  2.209550621E+01  0.00000E+00  9.000E+00
      13     1     3     3     0     0  3.371318754E-01  6.779160982E+00  3.100192976E-01  6.795436497E+00  1.056583668E-01  0.00000E+00  9.000E+00
     -13     1     3     3     0     0 -9.309788271E+00 -3.968039286E+00 -2.845554140E+01  3.020176309E+01  1.056583668E-01  0.00000E+00  9.000E+00
       3     1     1     2   511     0  8.972656396E+00 -2.811121696E+00 -4.599864185E+00  1.046755552E+01  0.000000000E+00  0.00000E+00  9.000E+00
#pdf  -3  3 0.62652794E-03 0.46108475E-02 0.22095506E+02 0.12321465E+01 0.59643420E+00
#rwgt            1           3   162.87902789425010         54217137    18510467           0
</event>
<event>
      6  10013  3.31628E+03  4.02291E+00 -1.00000E+00  2.62779E-01
      21    -1     0     0   511   501  0.000000000E+00  0.000000000E+00  3.763593302E+00  3.763593302E+00  0.000000000E+00  0.00000E+00  9.000E+00
       2    -1     0     0   501     0  0.000000000E+00  0.000000000E+00 -3.909654869E+03  3.909654869E+03  0.000000000E+00  0.00000E+00  9.000E+00
      23     2     1     2     0     0 -2.824044920E+00 -2.865060877E+00 -3.908250225E+03  3.908754940E+03  6.268314062E+01  0.00000E+00  9.000E+00
      13     1     3     3     0     0  6.263550436E+00 -1.443570840E+01 -2.604048484E+02  2.608798919E+02  1.056583668E-01  0.00000E+00  9.000E+00
     -13     1     3     3     0     0 -9.087595356E+00  1.157064752E+01 -3.647845376E+03  3.647875048E+03  1.056583668E-01  0.00000E+00  9.000E+00
       2     1     1     2   511     0  2.824044920E+00  2.865060877E+00  2.358948926E+00  4.663522657E+00  0.000000000E+00  0.00000E+00  9.000E+00
#pdf  -2  2 0.38744522E-04 0.60007354E+00 0.62683141E+02 0.42661342E+01 0.49598868E-01
#rwgt            1           4   9473.5270389477355         54217137    18510522           0
</event>
<event>
      6  10013  3.31628E+03  9.82579E+00 -1.00000E+00  1.96585E-01
      -2    -1     0     0     0   511  0.000000000E+00  0.000000000E+00  1.534543649E+01  1.534543649E+01  0.000000000E+00  0.00000E+00  9.000E+00
       2    -1     0     0   501     0  0.000000000E+00  0.000000000E+00 -2.399562200E+02  2.399562200E+02  0.000000000E+00  0.00000E+00  9.000E+00
      23     2     1     2     0     0 -9.586072979E+00 -2.157182825E+00 -2.316401556E+02  2.432203359E+02  7.350118300E+01  0.00000E+00  9.000E+00
      13     1     3     3     0     0 -1.543234721E+01 -2.108052910E+01 -2.680842366E+01  3.743325781E+01  1.056583668E-01  0.00000E+00  9.000E+00
     -13     1     3     3     0     0  5.846274235E+00  1.892334628E+01 -2.048317319E+02  2.057870781E+02  1.056583668E-01  0.00000E+00  9.000E+00
      21     1     1     2   501   511  9.586072979E+00  2.157182825E+00  7.029372113E+00  1.208132051E+01  6.364034565E-07  0.00000E+00  9.000E+00
#pdf  -2  2 0.88292867E-03 0.36205649E-01 0.73501183E+02 0.14663580E+01 0.64206187E+00
#rwgt            1           4   1192.5898804878743         54217137    18510702           0
</event>
<event>
      6  10013  3.31628E+03  1.02642E+01 -1.00000E+00  1.94399E-01
      21    -1     0     0   511   501  0.000000000E+00  0.000000000E+00  3.508713916E+00  3.508713916E+00  0.000000000E+00  0.00000E+00  9.000E+00
       1    -1     0     0   501     0  0.000000000E+00  0.000000000E+00 -1.761126269E+03  1.761126269E+03  0.000000000E+00  0.00000E+00  9.000E+00
      23     2     1     2     0     0 -5.515129873E+00 -8.656652556E+00 -1.748407310E+03  1.750844301E+03  9.177303827E+01  0.00000E+00  9.000E+00
      13     1     3     3     0     0  1.270000786E+01  3.350481506E+01 -1.194116239E+03  1.194653702E+03  1.056583668E-01  0.00000E+00  9.000E+00
     -13     1     3     3     0     0 -1.821513773E+01 -4.216146761E+01 -5.542910707E+02  5.561905994E+02  1.056583668E-01  0.00000E+00  9.000E+00
       1     1     1     2   511     0  5.515129873E+00  8.656652556E+00 -9.210244981E+00  1.379068177E+01  0.000000000E+00  0.00000E+00  9.000E+00
#pdf  -1  1 0.18629926E-03 0.26750529E+00 0.91773038E+02 0.27379619E+01 0.15987225E+00
#rwgt            1           5   854.65911068140610         54217137    18510835           0
</event>
<event>
      6  10013  3.31628E+03  6.59617E+01 -1.00000E+00  1.32515E-01
       1    -1     0     0   501     0  0.000000000E+00  0.000000000E+00  1.392341068E+03  1.392341068E+03  0.000000000E+00  0.00000E+00  9.000E+00
      21    -1     0     0   511   501  0.000000000E+00  0.000000000E+00 -1.185529089E+01  1.185529089E+01  0.000000000E+00  0.00000E+00  9.000E+00
      23     2     1     2     0     0 -6.507644859E+01  1.077067958E+01  1.274015167E+03  1.278948834E+03  9.079935303E+01  0.00000E+00  9.000E+00
      13     1     3     3     0     0  1.647412442E+01 -8.735071054E-01  5.524950996E+02  5.527413554E+02  1.056583668E-01  0.00000E+00  9.000E+00
     -13     1     3     3     0     0 -8.155057301E+01  1.164418669E+01  7.215200670E+02  7.262074781E+02  1.056583668E-01  0.00000E+00  9.000E+00
       1     1     1     2   511     0  6.507644859E+01 -1.077067958E+01  1.064706107E+02  1.252475255E+02  0.000000000E+00  0.00000E+00  9.000E+00
#pdf   1 -1 0.15888278E+00 0.30704496E-03 0.90799353E+02 0.28144174E+00 0.22774450E+01
#rwgt            1           6   1038.6184242867807         54217137    18510904           0
</event>
<event>
      6  10013  3.31628E+03  1.14378E+01 -1.00000E+00  1.89191E-01
       3    -1     0     0   501     0  0.000000000E+00  0.000000000E+00  3.157402699E+01  3.157402699E+01  0.000000000E+00  0.00000E+00  9.000E+00
      -3    -1     0     0     0   511  0.000000000E+00  0.000000000E+00 -1.331347496E+02  1.331347496E+02  0.000000000E+00  0.00000E+00  9.000E+00
      23     2     1     2     0     0  4.399588695E+00 -1.055784107E+01 -3.639720717E+01  9.854905974E+01  9.086438299E+01  0.00000E+00  9.000E+00
      13     1     3     3     0     0 -7.284398731E+00  1.665753480E+01 -5.871421002E+01  6.146466914E+01  1.056583668E-01  0.00000E+00  9.000E+00
     -13     1     3     3     0     0  1.168398743E+01 -2.721537587E+01  2.231700285E+01  3.708439060E+01  1.056583668E-01  0.00000E+00  9.000E+00
      21     1     1     2   501   511 -4.399588695E+00  1.055784107E+01 -6.516351544E+01  6.615971685E+01  9.536743164E-07  0.00000E+00  9.000E+00
#pdf   3 -3 0.47434784E-02 0.10299206E-01 0.90864383E+02 0.71640149E+00 0.48093586E+00
#rwgt            1           8   350.71026087777210         54217137    18510942           0
</event>
<event>
      6  10013  3.31628E+03  1.40418E+01 -1.00000E+00  1.80079E-01
      21    -1     0     0   511   501  0.000000000E+00  0.000000000E+00  7.835093969E+01  7.835093969E+01  0.000000000E+00  0.00000E+00  9.000E+00
       2    -1     0     0   501     0  0.000000000E+00  0.000000000E+00 -1.481842072E+03  1.481842072E+03  0.000000000E+00  0.00000E+00  9.000E+00
      23     2     1     2     0     0  3.046412597E+00  1.370732520E+01 -1.479410694E+03  1.482985815E+03  1.019497587E+02  0.00000E+00  9.000E+00
      13     1     3     3     0     0 -3.177914760E+01  4.257602311E+01 -1.011293901E+03  1.012688500E+03  1.056583668E-01  0.00000E+00  9.000E+00
     -13     1     3     3     0     0  3.482556020E+01 -2.886869791E+01 -4.681167929E+02  4.702973148E+02  1.056583668E-01  0.00000E+00  9.000E+00
       2     1     1     2   511     0 -3.046412597E+00 -1.370732520E+01  7.591956185E+01  7.720719698E+01  0.000000000E+00  0.00000E+00  9.000E+00
#pdf  -2  2 0.27243732E-03 0.22574550E+00 0.10194976E+03 0.24312414E+01 0.45015761E+00
#rwgt            1           4   2513.3728475206244         54217137    18511009           0
</event>
<event>
      6  10013  3.31628E+03  3.63905E+01 -1.00000E+00  1.47402E-01
       4    -1     0     0   511     0  0.000000000E+00  0.000000000E+00  2.800805914E+01  2.800805914E+01  0.000000000E+00  0.00000E+00  9.000E+00
      -4    -1     0     0     0   501  0.000000000E+00  0.000000000E+00 -5.968930689E+01  5.968930689E+01  0.000000000E+00  0.00000E+00  9.000E+00
      23     2     1     2     0     0 -3.005575053E+01 -2.051625493E+01 -2.239246699E+01  5.014012566E+01  2.623632534E+01  0.00000E+00  9.000E+00
      13     1     3     3     0     0 -2.956507630E+01 -2.565854068E+01 -1.702071195E+01  4.268688611E+01  1.056583668E-01  0.00000E+00  9.000E+00
     -13     1     3     3     0     0 -4.906742274E-01  5.142285754E+00 -5.371755036E+00  7.453239553E+00  1.056583668E-01  0.00000E+00  9.000E+00
      21     1     1     2   511   501  3.005575053E+01  2.051625493E+01 -9.288780763E+00  3.755724037E+01  5.331201500E-07  0.00000E+00  9.000E+00
#pdf   4 -4 0.12482634E-02 0.32629700E-02 0.26236325E+02 0.78690379E+00 0.51962017E+00
#rwgt            1           9   423.63427556682063         54217137    18511133           0
</event>
<event>
      6  10013  3.31628E+03  7.66988E+00 -1.00000E+00  2.10025E-01
      -2    -1     0     0     0   501  0.000000000E+00  0.000000000E+00  2.599021672E-01  2.599021672E-01  0.000000000E+00  0.00000E+00  9.000E+00
       2    -1     0     0   511     0  0.000000000E+00  0.000000000E+00 -1.267016909E+03  1.267016909E+03  0.000000000E+00  0.00000E+00  9.000E+00
      23     2     1     2     0     0 -4.222841311E+00  6.402712215E+00 -9.022977783E+02  9.027368869E+02  2.708835831E+01  0.00000E+00  9.000E+00
      13     1     3     3     0     0 -2.098276325E-01  2.467822941E+00 -7.079807054E+00  7.501267180E+00  1.056583668E-01  0.00000E+00  9.000E+00
     -13     1     3     3     0     0 -4.013013678E+00  3.934889275E+00 -8.952179712E+02  8.952356197E+02  1.056583668E-01  0.00000E+00  9.000E+00
      21     1     1     2   511   501  4.222841311E+00 -6.402712215E+00 -3.644592284E+02  3.645399241E+02  5.394796609E-06  0.00000E+00  9.000E+00
#pdf  -2  2 0.32499938E-04 0.13359682E+00 0.27088358E+02 0.34465068E+01 0.60316764E+00
#rwgt            1           4   3606.3822561853613         54217137    18511220           0
</event>
<event>
      6  10013  3.31628E+03  1.78802E+00 -1.00000E+00  3.87168E-01
       1    -1     0     0   501     0  0.000000000E+00  0.000000000E+00  1.304181325E+02  1.304181325E+02  0.000000000E+00  0.00000E+00  9.000E+00
      -1    -1     0     0     0   511  0.000000000E+00  0.000000000E+00 -1.019711440E+00  1.019711440E+00  0.000000000E+00  0.00000E+00  9.000E+00
      23     2     1     2     0     0  1.765922773E+00 -2.802366874E-01  1.223308332E+02  1.241475893E+02  2.108540111E+01  0.00000E+00  9.000E+00
      13     1     3     3     0     0 -1.390285874E+00  5.250134609E+00  8.180868637E+00  9.820111179E+00  1.056583668E-01  0.00000E+00  9.000E+00
     -13     1     3     3     0     0  3.156208647E+00 -5.530371296E+00  1.141499646E+02  1.143274781E+02  1.056583668E-01  0.00000E+00  9.000E+00
      21     1     1     2   501   511 -1.765922773E+00  2.802366874E-01  7.067587801E+00  7.290254671E+00  0.000000000E+00  0.00000E+00  9.000E+00
#pdf   1 -1 0.18892075E-01 0.13925069E-03 0.21085401E+02 0.52343581E+00 0.20338527E+01
#rwgt            1           6   277.38041101840264         54217137    18511304           0
</event>
<event>
      6  10013  3.31628E+03  2.95511E+00 -1.00000E+00  2.98728E-01
       1    -1     0     0   501     0  0.000000000E+00  0.000000000E+00  2.177259090E+02  2.177259090E+02  0.000000000E+00  0.00000E+00  9.000E+00
      -1    -1     0     0     0   511  0.000000000E+00  0.000000000E+00 -2.508839531E+01  2.508839531E+01  0.000000000E+00  0.00000E+00  9.000E+00
      23     2     1     2     0     0 -5.270369149E-01  2.907734607E+00  2.083714586E+02  2.268052534E+02  8.951662144E+01  0.00000E+00  9.000E+00
      13     1     3     3     0     0  1.148217165E+01 -1.609138229E+01  2.026499360E+02  2.036118380E+02  1.056583668E-01  0.00000E+00  9.000E+00
     -13     1     3     3     0     0 -1.200920856E+01  1.899911689E+01  5.721522619E+00  2.319341540E+01  1.056583668E-01  0.00000E+00  9.000E+00
      21     1     1     2   501   511  5.270369149E-01 -2.907734607E+00 -1.573394492E+01  1.600905092E+01  2.384185791E-07  0.00000E+00  9.000E+00
#pdf   1 -1 0.33456906E-01 0.14172122E-02 0.89516621E+02 0.48889121E+00 0.12652195E+01
#rwgt            1           6   999.35935535562840         54217137    18511395           0
</event>
<event>
      6  10013  3.31628E+03  5.21043E+00 -1.00000E+00  2.35344E-01
       2    -1     0     0   501     0  0.000000000E+00  0.000000000E+00  6.369006794E-01  6.369006794E-01  0.000000000E+00  0.00000E+00  9.000E+00
      -2    -1     0     0     0   511  0.000000000E+00  0.000000000E+00 -6.074599366E+02  6.074599366E+02  0.000000000E+00  0.00000E+00  9.000E+00
      23     2     1     2     0     0  7.084843870E-01  5.162042319E+00 -2.379803189E+02  2.392173196E+02  2.373068063E+01  0.00000E+00  9.000E+00
      13     1     3     3     0     0 -8.366326490E+00 -3.295125744E+00 -4.817772803E+01  4.900977366E+01  1.056583668E-01  0.00000E+00  9.000E+00
     -13     1     3     3     0     0  9.074810877E+00  8.457168063E+00 -1.898025908E+02  1.902075460E+02  1.056583668E-01  0.00000E+00  9.000E+00
      21     1     1     2   501   511 -7.084843870E-01 -5.162042319E+00 -3.688427170E+02  3.688795176E+02  0.000000000E+00  0.00000E+00  9.000E+00
#pdf   2 -2 0.92940003E-04 0.35853454E-01 0.23730681E+02 0.24072393E+01 0.23134443E+00
#rwgt            1           7   631.24141603492785         54217137    18511490           0
</event>
<event>
      6  10013  3.31628E+03  5.43092E+00 -1.00000E+00  2.32327E-01
       2    -1     0     0   501     0  0.000000000E+00  0.000000000E+00  8.024601176E+02  8.024601176E+02  0.000000000E+00  0.00000E+00  9.000E+00
      -2    -1     0     0     0   511  0.000000000E+00  0.000000000E+00 -4.135755545E+00  4.135755545E+00  0.000000000E+00  0.00000E+00  9.000E+00
      23     2     1     2     0     0 -3.023807826E+00  4.511259417E+00  7.949353682E+02  8.001942988E+02  9.142855817E+01  0.00000E+00  9.000E+00
      13     1     3     3     0     0  4.412654935E+01  1.744018060E+00  3.579601258E+02  3.606738926E+02  1.056583668E-01  0.00000E+00  9.000E+00
     -13     1     3     3     0     0 -4.715035718E+01  2.767241357E+00  4.369752424E+02  4.395204062E+02  1.056583668E-01  0.00000E+00  9.000E+00
      21     1     1     2   501   511  3.023807826E+00 -4.511259417E+00  3.388993824E+00  6.401574372E+00  9.424321831E-08  0.00000E+00  9.000E+00
#pdf   2 -2 0.12248638E+00 0.40382132E-03 0.91428558E+02 0.58305321E+00 0.20548194E+01
#rwgt            1           7   1662.5751325960625         54217137    18511702           0
</event>
<event>
      6  10013  3.31628E+03  1.76434E+00 -1.00000E+00  3.90297E-01
       2    -1     0     0   501     0  0.000000000E+00  0.000000000E+00  8.306400059E+01  8.306400059E+01  0.000000000E+00  0.00000E+00  9.000E+00
      -2    -1     0     0     0   511  0.000000000E+00  0.000000000E+00 -4.122049483E+01  4.122049483E+01  0.000000000E+00  0.00000E+00  9.000E+00
      23     2     1     2     0     0  1.669417867E+00  5.709087762E-01  5.745906180E+01  1.085695826E+02  9.210156133E+01  0.00000E+00  9.000E+00
      13     1     3     3     0     0 -6.066894261E+00 -4.395444953E+01  1.578555790E+01  4.709560320E+01  1.056583668E-01  0.00000E+00  9.000E+00
     -13     1     3     3     0     0  7.736312129E+00  4.452535830E+01  4.167350391E+01  6.147397945E+01  1.056583668E-01  0.00000E+00  9.000E+00
      21     1     1     2   501   511 -1.669417867E+00 -5.709087762E-01 -1.561555605E+01  1.571491277E+01  1.685873940E-07  0.00000E+00  9.000E+00
#pdf   2 -2 0.12769091E-01 0.39308573E-02 0.92101561E+02 0.72782272E+00 0.81755466E+00
#rwgt            1           7   535.92193362964042         54217137    18511853           0
</event>
<event>
      6  10013  3.31628E+03  3.68496E+01 -1.00000E+00  1.47053E-01
      21    -1     0     0   501   511  0.000000000E+00  0.000000000E+00  4.764958435E+02  4.764958435E+02  0.000000000E+00  0.00000E+00  9.000E+00
      -4    -1     0     0     0   501  0.000000000E+00  0.000000000E+00 -1.194530993E+01  1.194530993E+01  0.000000000E+00  0.00000E+00  9.000E+00
      23     2     1     2     0     0  8.112336674E+00  3.594555484E+01  2.187038869E+02  2.398481796E+02  9.131191725E+01  0.00000E+00  9.000E+00
      13     1     3     3     0     0 -3.820698441E+01  1.592556822E+01  5.693484009E+01  7.039165121E+01  1.056583668E-01  0.00000E+00  9.000E+00
     -13     1     3     3     0     0  4.631932109E+01  2.001998662E+01  1.617690468E+02  1.694565284E+02  1.056583668E-01  0.00000E+00  9.000E+00
      -4     1     1     2     0   511 -8.112336674E+00 -3.594555484E+01  2.458466468E+02  2.485929738E+02  0.000000000E+00  0.00000E+00  9.000E+00
#pdf   4 -4 0.32710099E-01 0.15082953E-02 0.91311917E+02 0.13433834E+00 0.97896353E+00
#rwgt            1           9   111.43384376876945         54217137    18512033           0
</event>
<event>
      6  10013  3.31628E+03  5.22491E+00 -1.00000E+00  2.35140E-01
       3    -1     0     0   501     0  0.000000000E+00  0.000000000E+00  6.736727195E+00  6.736727195E+00  0.000000000E+00  0.00000E+00  9.000E+00
      21    -1     0     0   511   501  0.000000000E+00  0.000000000E+00 -1.568579787E+03  1.568579787E+03  0.000000000E+00  0.00000E+00  9.000E+00
      23     2     1     2     0     0 -5.123119943E+00 -1.026305959E+00 -3.047708187E+02  3.182334148E+02  9.143278758E+01  0.00000E+00  9.000E+00
      13     1     3     3     0     0 -1.231209617E+01  2.124116962E+01 -2.889415624E+02  2.899827800E+02  1.056583668E-01  0.00000E+00  9.000E+00
     -13     1     3     3     0     0  7.188976222E+00 -2.226747558E+01 -1.582925630E+01  2.825063480E+01  1.056583668E-01  0.00000E+00  9.000E+00
       3     1     1     2   511     0  5.123119943E+00  1.026305959E+00 -1.257072241E+03  1.257083099E+03  0.000000000E+00  0.00000E+00  9.000E+00
#pdf   3 -3 0.10338976E-02 0.47845346E-01 0.91432788E+02 0.13904661E+01 0.15708282E+00
#rwgt            1           8   248.72941102061642         54217137    18512092           0
</event>
<event>
      6  10013  3.31628E+03  2.15746E+01 -1.00000E+00  1.63658E-01
      21    -1     0     0   501   511  0.000000000E+00  0.000000000E+00  6.300707808E+00  6.300707808E+00  0.000000000E+00  0.00000E+00  9.000E+00
      -2    -1     0     0     0   501  0.000000000E+00  0.000000000E+00 -1.360616406E+02  1.360616406E+02  0.000000000E+00  0.00000E+00  9.000E+00
      23     2     1     2     0     0 -1.291442460E+00 -2.153587245E+01 -5.754500855E+01  6.699258431E+01  2.666677179E+01  0.00000E+00  9.000E+00
      13     1     3     3     0     0  7.671462730E+00 -1.142374591E+01 -8.624932783E+00  1.624050308E+01  1.056583668E-01  0.00000E+00  9.000E+00
     -13     1     3     3     0     0 -8.962905190E+00 -1.011212654E+01 -4.892007577E+01  5.075208124E+01  1.056583668E-01  0.00000E+00  9.000E+00
      -2     1     1     2     0   511  1.291442460E+00  2.153587245E+01 -7.221592421E+01  7.536976407E+01  0.000000000E+00  0.00000E+00  9.000E+00
#pdf   2 -2 0.56498517E-03 0.74476136E-02 0.26666772E+02 0.14361179E+01 0.53234046E+00
#rwgt            1           7   644.05740794321468         54217137    18512147           0
</event>
<event>
      6  10013  3.31628E+03  1.34880E+00 -1.00000E+00  4.83868E-01
       2    -1     0     0   501     0  0.000000000E+00  0.000000000E+00  3.820011013E-01  3.820011013E-01  0.000000000E+00  0.00000E+00  9.000E+00
      -2    -1     0     0     0   511  0.000000000E+00  0.000000000E+00 -7.472482210E+02  7.472482210E+02  0.000000000E+00  0.00000E+00  9.000E+00
      23     2     1     2     0     0 -1.184371611E+00 -6.453829661E-01 -4.753388525E+02  4.760995046E+02  2.686809275E+01  0.00000E+00  9.000E+00
      13     1     3     3     0     0  8.846954249E+00  1.403125089E+00 -6.301622595E+01  6.364977028E+01  1.056583668E-01  0.00000E+00  9.000E+00
     -13     1     3     3     0     0 -1.003132586E+01 -2.048508055E+00 -4.123226265E+02  4.124497344E+02  1.056583668E-01  0.00000E+00  9.000E+00
      21     1     1     2   501   511  1.184371611E+00  6.453829661E-01 -2.715273674E+02  2.715307174E+02  8.529922400E-06  0.00000E+00  9.000E+00
#pdf   2 -2 0.58438117E-04 0.73095519E-01 0.26868093E+02 0.28874911E+01 0.12906203E+00
#rwgt            1           7   342.30975105703965         54217137    18512193           0
</event>
<event>
      6  10013  3.31628E+03  2.27566E+01 -1.00000E+00  1.61832E-01
       4    -1     0     0   511     0  0.000000000E+00  0.000000000E+00  6.516821177E+02  6.516821177E+02  0.000000000E+00  0.00000E+00  9.000E+00
      -4    -1     0     0     0   501  0.000000000E+00  0.000000000E+00 -8.118572001E+00  8.118572001E+00  0.000000000E+00  0.00000E+00  9.000E+00
      23     2     1     2     0     0 -1.313953296E+01 -1.857996328E+01  2.640552642E+02  2.796107397E+02  8.910174430E+01  0.00000E+00  9.000E+00
      13     1     3     3     0     0  1.962798852E+01  2.848790284E+01  1.018829717E+02  1.075963272E+02  1.056583668E-01  0.00000E+00  9.000E+00
     -13     1     3     3     0     0 -3.276752148E+01 -4.706786612E+01  1.621722926E+02  1.720144126E+02  1.056583668E-01  0.00000E+00  9.000E+00
      21     1     1     2   511   501  1.313953296E+01  1.857996328E+01  3.795082815E+02  3.801899500E+02  5.394796609E-06  0.00000E+00  9.000E+00
#pdf   4 -4 0.40519800E-01 0.11593603E-02 0.89101744E+02 0.10742771E+00 0.10978398E+01
#rwgt            1           9   134.33756362244540         54217137    18512382           0
</event>
<event>
      6  10013  3.31628E+03  2.29467E+01 -1.00000E+00  1.61551E-01
      21    -1     0     0   511   501  0.000000000E+00  0.000000000E+00  2.001038506E+01  2.001038506E+01  0.000000000E+00  0.00000E+00  9.000E+00
       4    -1     0     0   501     0  0.000000000E+00  0.000000000E+00 -5.847450433E+02  5.847450433E+02  0.000000000E+00  0.00000E+00  9.000E+00
      23     2     1     2     0     0 -2.155330871E+01  7.874238623E+00 -5.728798463E+02  5.804060375E+02  9.029563261E+01  0.00000E+00  9.000E+00
      13     1     3     3     0     0  2.054299530E+01 -2.959955637E+01 -1.879750429E+02  1.913969078E+02  1.056583668E-01  0.00000E+00  9.000E+00
     -13     1     3     3     0     0 -4.209630401E+01  3.747379500E+01 -3.849048034E+02  3.890091297E+02  1.056583668E-01  0.00000E+00  9.000E+00
       4     1     1     2   511     0  2.155330871E+01 -7.874238623E+00  8.145188043E+00  2.434939093E+01  0.000000000E+00  0.00000E+00  9.000E+00
#pdf  -4  4 0.56110292E-03 0.85981350E-01 0.90295633E+02 0.15044982E+01 0.41000108E-01
#rwgt            1           2   65.744820884170977         54217137    18512417           0
</event>
<event>
      6  10013  3.31628E+03  4.43817E+00 -1.00000E+00  2.53168E-01
      -2    -1     0     0     0   501  0.000000000E+00  0.000000000E+00  1.653445897E+00  1.653445897E+00  0.000000000E+00  0.00000E+00  9.000E+00
       2    -1     0     0   511     0  0.000000000E+00  0.000000000E+00 -1.448240833E+03  1.448240833E+03  0.000000000E+00  0.00000E+00  9.000E+00
      23     2     1     2     0     0 -8.812707777E-01 -4.349793014E+00 -1.291779944E+03  1.295023230E+03  9.148795142E+01  0.00000E+00  9.000E+00
      13     1     3     3     0     0  1.671687709E+01  3.150358426E+01 -9.861497014E+02  9.867943932E+02  1.056583668E-01  0.00000E+00  9.000E+00
     -13     1     3     3     0     0 -1.759814787E+01 -3.585337727E+01 -3.056302425E+02  3.082288366E+02  1.056583668E-01  0.00000E+00  9.000E+00
      21     1     1     2   511   501  8.812707777E-01  4.349793014E+00 -1.548074428E+02  1.548710486E+02  1.907348633E-06  0.00000E+00  9.000E+00
#pdf  -2  2 0.24919050E-03 0.19875114E+00 0.91487951E+02 0.24575356E+01 0.49230616E+00
#rwgt            1           4   1913.3792306654452         54217137    18512467           0
</event>
<event>
      6  10013  3.31628E+03  1.05684E+00 -1.00000E+00  6.11652E-01
       3    -1     0     0   511     0  0.000000000E+00  0.000000000E+00  1.597022473E+00  1.597022473E+00  0.000000000E+00  0.00000E+00  9.000E+00
      -3    -1     0     0     0   501  0.000000000E+00  0.000000000E+00 -2.457290968E+02  2.457290968E+02  0.000000000E+00  0.00000E+00  9.000E+00
      23     2     1     2     0     0 -4.326579573E-01 -9.642139905E-01 -2.443188348E+02  2.462529086E+02  3.078449413E+01  0.00000E+00  9.000E+00
      13     1     3     3     0     0  3.998968074E+00 -5.392140620E+00 -2.345585757E+02  2.346546474E+02  1.056583668E-01  0.00000E+00  9.000E+00
     -13     1     3     3     0     0 -4.431626032E+00  4.427926630E+00 -9.760259044E+00  1.159826124E+01  1.056583668E-01  0.00000E+00  9.000E+00
      21     1     1     2   511   501  4.326579573E-01  9.642139905E-01  1.867604889E-01  1.073210607E+00  8.886203499E-08  0.00000E+00  9.000E+00
#pdf   3 -3 0.14868732E-03 0.37714070E-01 0.30784494E+02 0.21755349E+01 0.19127269E+00
#rwgt            1           8   137.87293599394928         54217137    18512601           0
</event>
<event>
      6  10013  3.31628E+03  2.45709E+00 -1.00000E+00  3.25754E-01
      -2    -1     0     0     0   511  0.000000000E+00  0.000000000E+00  7.374259802E-01  7.374259802E-01  0.000000000E+00  0.00000E+00  9.000E+00
       2    -1     0     0   501     0  0.000000000E+00  0.000000000E+00 -3.759314518E+03  3.759314518E+03  0.000000000E+00  0.00000E+00  9.000E+00
      23     2     1     2     0     0 -2.228335007E+00  1.035291141E+00 -3.749419087E+03  3.750570048E+03  9.287709042E+01  0.00000E+00  9.000E+00
      13     1     3     3     0     0  1.391014926E+01 -3.558952976E+01 -2.855267771E+03  2.855523448E+03  1.056583668E-01  0.00000E+00  9.000E+00
     -13     1     3     3     0     0 -1.613848427E+01  3.662482090E+01 -8.941513162E+02  8.950465997E+02  1.056583668E-01  0.00000E+00  9.000E+00
      21     1     1     2   501   511  2.228335007E+00 -1.035291141E+00 -9.158004553E+00  9.481896016E+00  2.064765462E-07  0.00000E+00  9.000E+00
#pdf  -2  2 0.88504457E-04 0.57672046E+00 0.92877090E+02 0.35721739E+01 0.56752713E-01
#rwgt            1           4   1706.3335887061528         54217137    18512815           0
</event>
<event>
      6  10013  3.31628E+03  8.82255E+00 -1.00000E+00  2.02202E-01
       2    -1     0     0   511     0  0.000000000E+00  0.000000000E+00  7.372454880E+01  7.372454880E+01  0.000000000E+00  0.00000E+00  9.000E+00
      -2    -1     0     0     0   501  0.000000000E+00  0.000000000E+00 -2.845528842E+01  2.845528842E+01  0.000000000E+00  0.00000E+00  9.000E+00
      23     2     1     2     0     0 -7.039362042E+00 -5.318342895E+00  3.873388296E+01  9.120037699E+01  8.209359101E+01  0.00000E+00  9.000E+00
      13     1     3     3     0     0  2.624559622E+01  1.132391389E+01 -9.641965436E+00  3.016688595E+01  1.056583668E-01  0.00000E+00  9.000E+00
     -13     1     3     3     0     0 -3.328495826E+01 -1.664225678E+01  4.837584840E+01  6.103349104E+01  1.056583668E-01  0.00000E+00  9.000E+00
      21     1     1     2   511   501  7.039362042E+00  5.318342895E+00  6.535377413E+00  1.097946023E+01  0.000000000E+00  0.00000E+00  9.000E+00
#pdf   2 -2 0.99377191E-02 0.40127775E-02 0.82093591E+02 0.75852479E+00 0.79960981E+00
#rwgt            1           7   770.50927530134970         54217137    18513072           0
</event>
<event>
      6  10013  3.31628E+03  6.90899E+00 -1.00000E+00  2.16288E-01
      -3    -1     0     0     0   511  0.000000000E+00  0.000000000E+00  1.407761985E+00  1.407761985E+00  0.000000000E+00  0.00000E+00  9.000E+00
       3    -1     0     0   501     0  0.000000000E+00  0.000000000E+00 -2.430494293E+02  2.430494293E+02  0.000000000E+00  0.00000E+00  9.000E+00
      23     2     1     2     0     0  5.221049856E-01 -6.889229997E+00 -2.033726864E+02  2.055695456E+02  2.916598083E+01  0.00000E+00  9.000E+00
      13     1     3     3     0     0  6.852170723E+00 -1.284473933E+00 -1.108102590E+01  1.309207453E+01  1.056583668E-01  0.00000E+00  9.000E+00
     -13     1     3     3     0     0 -6.330065737E+00 -5.604756065E+00 -1.922916605E+02  1.924774711E+02  1.056583668E-01  0.00000E+00  9.000E+00
      21     1     1     2   501   511 -5.221049856E-01  6.889229997E+00 -3.826898101E+01  3.888764574E+01  0.000000000E+00  0.00000E+00  9.000E+00
#pdf  -3  3 0.16443845E-03 0.30609984E-01 0.29165981E+02 0.20714299E+01 0.22452017E+00
#rwgt            1           3   134.51561493080828         54217137    18513162           0
</event>
<event>
      6  10013  3.31628E+03  2.83800E+00 -1.00000E+00  3.04234E-01
      -3    -1     0     0     0   511  0.000000000E+00  0.000000000E+00  5.251596377E+00  5.251596377E+00  0.000000000E+00  0.00000E+00  9.000E+00
       3    -1     0     0   501     0  0.000000000E+00  0.000000000E+00 -3.515698090E+01  3.515698090E+01  0.000000000E+00  0.00000E+00  9.000E+00
      23     2     1     2     0     0 -2.650969287E+00  1.013219618E+00 -3.083330641E+01  3.742272879E+01  2.101698345E+01  0.00000E+00  9.000E+00
      13     1     3     3     0     0  1.701280820E+00  2.767957074E+00 -3.233231507E+01  3.249531819E+01  1.056583668E-01  0.00000E+00  9.000E+00
     -13     1     3     3     0     0 -4.352250107E+00 -1.754737456E+00  1.499008658E+00  4.927410596E+00  1.056583668E-01  0.00000E+00  9.000E+00
      21     1     1     2   501   511  2.650969287E+00 -1.013219618E+00  9.279218918E-01  2.985848488E+00  5.053229617E-08  0.00000E+00  9.000E+00
#pdf  -3  3 0.50231966E-03 0.52032403E-02 0.21016983E+02 0.13067155E+01 0.56260158E+00
#rwgt            1           3   136.34095361710317         54217137    18513237           0
</event>
<event>
      6  10013  3.31628E+03  2.58436E+01 -1.00000E+00  1.57642E-01
      21    -1     0     0   511   501  0.000000000E+00  0.000000000E+00  1.709500067E+02  1.709500067E+02  0.000000000E+00  0.00000E+00  9.000E+00
       5    -1     0     0   501     0  0.000000000E+00  0.000000000E+00 -6.475404537E+01  6.475404537E+01  0.000000000E+00  0.00000E+00  9.000E+00
      23     2     1     2     0     0 -2.441526114E+01 -8.472647756E+00 -1.618688540E+01  1.106222712E+02  1.063361692E+02  0.00000E+00  9.000E+00
      13     1     3     3     0     0 -5.046564437E+00  2.989451758E+01 -4.826148159E+01  5.699413797E+01  1.056583668E-01  0.00000E+00  9.000E+00
     -13     1     3     3     0     0 -1.936869670E+01 -3.836716533E+01  3.207459619E+01  5.362813321E+01  1.056583668E-01  0.00000E+00  9.000E+00
       5     1     1     2   511     0  2.441526114E+01  8.472647756E+00  1.223828467E+02  1.250817809E+02  0.000000000E+00  0.00000E+00  9.000E+00
#pdf  -5  5 0.70587814E-02 0.94786303E-02 0.10633617E+03 0.29180332E+00 0.23726248E+00
#rwgt            1           1   94.913649020288773         54217137    18513302           0
</event>
<event>
      6  10013  3.31628E+03  9.59443E+00 -1.00000E+00  1.97799E-01
       3    -1     0     0   501     0  0.000000000E+00  0.000000000E+00  4.751723077E-01  4.751723077E-01  0.000000000E+00  0.00000E+00  9.000E+00
      21    -1     0     0   511   501  0.000000000E+00  0.000000000E+00 -6.455699841E+02  6.455699841E+02  0.000000000E+00  0.00000E+00  9.000E+00
      23     2     1     2     0     0  7.620091584E+00  5.829866415E+00 -4.800756408E+02  4.807473043E+02  2.352225544E+01  0.00000E+00  9.000E+00
      13     1     3     3     0     0  1.613399107E+01  2.858480770E+00 -3.097146262E+02  3.101477671E+02  1.056583668E-01  0.00000E+00  9.000E+00
     -13     1     3     3     0     0 -8.513899491E+00  2.971385644E+00 -1.703610146E+02  1.705995372E+02  1.056583668E-01  0.00000E+00  9.000E+00
       3     1     1     2   511     0 -7.620091584E+00 -5.829866415E+00 -1.650191709E+02  1.652978521E+02  0.000000000E+00  0.00000E+00  9.000E+00
#pdf   3 -3 0.47839847E-04 0.68435499E-01 0.23522255E+02 0.28313192E+01 0.10749267E+00
#rwgt            1           8   97.481675519742438         54217137    18513436           0
</event>
<event>
      6  10013  3.31628E+03  3.54595E+00 -1.00000E+00  2.76322E-01
      -2    -1     0     0     0   501  0.000000000E+00  0.000000000E+00  9.693843161E+00  9.693843161E+00  0.000000000E+00  0.00000E+00  9.000E+00
       2    -1     0     0   511     0  0.000000000E+00  0.000000000E+00 -2.386690884E+02  2.386690884E+02  0.000000000E+00  0.00000E+00  9.000E+00
      23     2     1     2     0     0 -3.544484261E+00  1.017943378E-01 -2.014548348E+02  2.206150178E+02  8.985745300E+01  0.00000E+00  9.000E+00
      13     1     3     3     0     0 -1.788919368E+01  4.171841564E+01 -9.046347492E+01  1.012131459E+02  1.056583668E-01  0.00000E+00  9.000E+00
     -13     1     3     3     0     0  1.434470942E+01 -4.161662130E+01 -1.109913599E+02  1.194018718E+02  1.056583668E-01  0.00000E+00  9.000E+00
      21     1     1     2   511   501  3.544484261E+00 -1.017943378E-01 -2.752041044E+01  2.774791382E+01  0.000000000E+00  0.00000E+00  9.000E+00
#pdf  -2  2 0.14727140E-02 0.32441662E-01 0.89857453E+02 0.12376989E+01 0.64881456E+00
#rwgt            1           4   716.40489540377428         54217137    18513504           0
</event>
<event>
      6  10013  3.31628E+03  5.42321E+01 -1.00000E+00  1.37064E-01
       2    -1     0     0   501     0  0.000000000E+00  0.000000000E+00  3.514840897E+03  3.514840897E+03  0.000000000E+00  0.00000E+00  9.000E+00
      21    -1     0     0   511   501  0.000000000E+00  0.000000000E+00 -2.677326355E+00  2.677326355E+00  0.000000000E+00  0.00000E+00  9.000E+00
      23     2     1     2     0     0  2.957529145E+01 -4.545788576E+01  1.190634597E+03  1.195355892E+03  9.123512457E+01  0.00000E+00  9.000E+00
      13     1     3     3     0     0  4.424318423E+01 -5.572884037E+01  5.647269357E+02  5.691921345E+02  1.056583668E-01  0.00000E+00  9.000E+00
     -13     1     3     3     0     0 -1.466789278E+01  1.027095461E+01  6.259076614E+02  6.261637576E+02  1.056583668E-01  0.00000E+00  9.000E+00
       2     1     1     2   511     0 -2.957529145E+01  4.545788576E+01  2.321528973E+03  2.322162331E+03  0.000000000E+00  0.00000E+00  9.000E+00
#pdf   2 -2 0.15776930E+00 0.31218709E-03 0.91235125E+02 0.54530131E+00 0.22605023E+01
#rwgt            1           7   1396.9162097327667         54217137    18513705           0
</event>
<event>
      6  10013  3.31628E+03  7.39606E+00 -1.00000E+00  2.12161E-01
      21    -1     0     0   511   501  0.000000000E+00  0.000000000E+00  5.252176866E+00  5.252176866E+00  0.000000000E+00  0.00000E+00  9.000E+00
       2    -1     0     0   501     0  0.000000000E+00  0.000000000E+00 -6.087097984E+02  6.087097984E+02  0.000000000E+00  0.00000E+00  9.000E+00
      23     2     1     2     0     0  5.989911440E+00 -4.338515762E+00 -4.083404264E+02  4.187046537E+02  9.228749375E+01  0.00000E+00  9.000E+00
      13     1     3     3     0     0 -3.812979468E+01 -7.780843672E+00 -1.017715395E+02  1.089581580E+02  1.056583668E-01  0.00000E+00  9.000E+00
     -13     1     3     3     0     0  4.411970612E+01  3.442327910E+00 -3.065688869E+02  3.097464958E+02  1.056583668E-01  0.00000E+00  9.000E+00
       2     1     1     2   511     0 -5.989911440E+00  4.338515762E+00 -1.951171952E+02  1.952573215E+02  0.000000000E+00  0.00000E+00  9.000E+00
#pdf  -2  2 0.79470030E-03 0.63415530E-01 0.92287494E+02 0.15888183E+01 0.62543229E+00
#rwgt            1           4   643.15845613400927         54217137    18513751           0
</event>
<event>
      6  10013  3.31628E+03  2.01490E+01 -1.00000E+00  1.66062E-01
       1    -1     0     0   501     0  0.000000000E+00  0.000000000E+00  4.936301335E+02  4.936301335E+02  0.000000000E+00  0.00000E+00  9.000E+00
      21    -1     0     0   511   501  0.000000000E+00  0.000000000E+00 -1.395757675E+01  1.395757675E+01  0.000000000E+00  0.00000E+00  9.000E+00
      23     2     1     2     0     0  1.555920608E+01  1.280215532E+01  4.783961009E+02  4.873982721E+02  9.103989337E+01  0.00000E+00  9.000E+00
      13     1     3     3     0     0 -3.606422962E+01  9.079306518E+00  1.313299211E+02  1.364940358E+02  1.056583668E-01  0.00000E+00  9.000E+00
     -13     1     3     3     0     0  5.162343570E+01  3.722848801E+00  3.470661798E+02  3.509042363E+02  1.056583668E-01  0.00000E+00  9.000E+00
       1     1     1     2   511     0 -1.555920608E+01 -1.280215532E+01  1.276455849E+00  2.018943818E+01  0.000000000E+00  0.00000E+00  9.000E+00
#pdf   1 -1 0.72536582E-01 0.67611362E-03 0.91039893E+02 0.40303630E+00 0.16944708E+01
#rwgt            1           6   899.54784786179300         54217137    18513913           0
</event>
<event>
      6  10013  3.31628E+03  4.25897E+01 -1.00000E+00  1.43140E-01
       1    -1     0     0   501     0  0.000000000E+00  0.000000000E+00  5.697383581E+02  5.697383581E+02  0.000000000E+00  0.00000E+00  9.000E+00
      21    -1     0     0   511   501  0.000000000E+00  0.000000000E+00 -9.728306804E+00  9.728306804E+00  0.000000000E+00  0.00000E+00  9.000E+00
      23     2     1     2     0     0 -1.305862809E+01 -4.053833204E+01  3.134765040E+02  3.292813855E+02  9.135003058E+01  0.00000E+00  9.000E+00
      13     1     3     3     0     0 -5.176675680E+01 -2.475653504E+01  2.095076009E+02  2.172236845E+02  1.056583668E-01  0.00000E+00  9.000E+00
     -13     1     3     3     0     0  3.870812871E+01 -1.578179700E+01  1.039689032E+02  1.120577009E+02  1.056583668E-01  0.00000E+00  9.000E+00
       1     1     1     2   511     0  1.305862809E+01  4.053833204E+01  2.465335472E+02  2.501852794E+02  0.000000000E+00  0.00000E+00  9.000E+00
#pdf   1 -1 0.44811908E-01 0.11018875E-02 0.91350031E+02 0.45648194E+00 0.14024385E+01
#rwgt            1           6   880.86527272721821         54217137    18514048           0
</event>
<event>
      6  10013  3.31628E+03  3.64607E+00 -1.00000E+00  2.73209E-01
      -1    -1     0     0     0   501  0.000000000E+00  0.000000000E+00  6.896409507E+02  6.896409507E+02  0.000000000E+00  0.00000E+00  9.000E+00
       1    -1     0     0   511     0  0.000000000E+00  0.000000000E+00 -4.019330286E+00  4.019330286E+00  0.000000000E+00  0.00000E+00  9.000E+00
      23     2     1     2     0     0 -3.458022233E+00  1.155817021E+00  6.646915486E+02  6.724150054E+02  1.015568353E+02  0.00000E+00  9.000E+00
      13     1     3     3     0     0  5.134639425E+00 -4.941761131E+01  2.894246150E+02  2.936581069E+02  1.056583668E-01  0.00000E+00  9.000E+00
     -13     1     3     3     0     0 -8.592661658E+00  5.057342833E+01  3.752669336E+02  3.787568985E+02  1.056583668E-01  0.00000E+00  9.000E+00
      21     1     1     2   511   501  3.458022233E+00 -1.155817021E+00  2.093007175E+01  2.124527557E+01  0.000000000E+00  0.00000E+00  9.000E+00
#pdf  -1  1 0.10278813E+00 0.59372954E-03 0.10155684E+03 0.11037495E+00 0.18497376E+01
#rwgt            1           5   422.15299599808532         54217137    18514101           0
</event>
<event>
      6  10013  3.31628E+03  1.74649E+01 -1.00000E+00  1.71333E-01
      -1    -1     0     0     0   511  0.000000000E+00  0.000000000E+00  3.938598810E+00  3.938598810E+00  0.000000000E+00  0.00000E+00  9.000E+00
       1    -1     0     0   501     0  0.000000000E+00  0.000000000E+00 -8.641437732E+02  8.641437732E+02  0.000000000E+00  0.00000E+00  9.000E+00
      23     2     1     2     0     0 -1.230799932E+00 -1.742151802E+01 -8.042160640E+02  8.094325242E+02  9.006947085E+01  0.00000E+00  9.000E+00
      13     1     3     3     0     0 -3.171164794E+01  2.054532014E+01 -4.913388376E+02  4.927896136E+02  1.056583668E-01  0.00000E+00  9.000E+00
     -13     1     3     3     0     0  3.048084801E+01 -3.796683817E+01 -3.128772264E+02  3.166429106E+02  1.056583668E-01  0.00000E+00  9.000E+00
      21     1     1     2   501   511  1.230799932E+00  1.742151802E+01 -5.598911044E+01  5.864984780E+01  9.536743164E-07  0.00000E+00  9.000E+00
#pdf  -1  1 0.39392880E-03 0.12185709E+00 0.90069471E+02 0.20736293E+01 0.33069630E+00
#rwgt            1           5   1158.5238158975410         54217137    18514265           0
</event>
<event>
      6  10013  3.31628E+03  9.51498E+00 -1.00000E+00  1.98227E-01
       1    -1     0     0   501     0  0.000000000E+00  0.000000000E+00  1.032148368E+01  1.032148368E+01  0.000000000E+00  0.00000E+00  9.000E+00
      21    -1     0     0   511   501  0.000000000E+00  0.000000000E+00 -3.911930638E+02  3.911930638E+02  0.000000000E+00  0.00000E+00  9.000E+00
      23     2     1     2     0     0 -7.093860117E-01 -9.488500133E+00 -1.923364345E+02  2.127394538E+02  9.041148326E+01  0.00000E+00  9.000E+00
      13     1     3     3     0     0  1.542306472E+01  1.824290396E+01 -7.353792567E+00  2.499527754E+01  1.056583668E-01  0.00000E+00  9.000E+00
     -13     1     3     3     0     0 -1.613245073E+01 -2.773140410E+01 -1.849826420E+02  1.877441763E+02  1.056583668E-01  0.00000E+00  9.000E+00
       1     1     1     2   511     0  7.093860117E-01  9.488500133E+00 -1.885351456E+02  1.887750936E+02  0.000000000E+00  0.00000E+00  9.000E+00
#pdf   1 -1 0.15608432E-02 0.30988547E-01 0.90411483E+02 0.12750089E+01 0.29410719E+00
#rwgt            1           6   550.82707323110844         54217137    18514294           0
</event>
<event>
      6  10013  3.31628E+03  3.62322E+00 -1.00000E+00  2.73905E-01
      -2    -1     0     0     0   501  0.000000000E+00  0.000000000E+00  1.360678230E-01  1.360678230E-01  0.000000000E+00  0.00000E+00  9.000E+00
       2    -1     0     0   511     0  0.000000000E+00  0.000000000E+00 -2.334492659E+03  2.334492659E+03  0.000000000E+00  0.00000E+00  9.000E+00
      23     2     1     2     0     0  2.955005632E-01  3.611150063E+00 -1.275586949E+03  1.275852885E+03  2.579520011E+01  0.00000E+00  9.000E+00
      13     1     3     3     0     0  1.883098960E+00  7.589013568E+00 -1.183769302E+02  1.186349357E+02  1.056583668E-01  0.00000E+00  9.000E+00
     -13     1     3     3     0     0 -1.587598396E+00 -3.977863504E+00 -1.157210019E+03  1.157217950E+03  1.056583668E-01  0.00000E+00  9.000E+00
      21     1     1     2   511   501 -2.955005632E-01 -3.611150063E+00 -1.058769642E+03  1.058775841E+03  2.642899792E-05  0.00000E+00  9.000E+00
#pdf  -2  2 0.20257767E-04 0.19435671E+00 0.25795200E+02 0.38983691E+01 0.54546000E+00
#rwgt            1           4   3421.6485948071181         54217137    18514373           0
</event>
<event>
      6  10013  3.31628E+03  8.62509E+00 -1.00000E+00  2.03425E-01
      21    -1     0     0   501   511  0.000000000E+00  0.000000000E+00  3.772527331E+02  3.772527331E+02  0.000000000E+00  0.00000E+00  9.000E+00
      -3    -1     0     0     0   501  0.000000000E+00  0.000000000E+00 -1.441905758E+01  1.441905758E+01  0.000000000E+00  0.00000E+00  9.000E+00
      23     2     1     2     0     0 -5.117849570E+00 -6.942607722E+00  1.375147072E+02  1.661878008E+02  9.291769621E+01  0.00000E+00  9.000E+00
      13     1     3     3     0     0  1.070071889E+01  3.874659432E+01  3.693160402E+01  5.458716420E+01  1.056583668E-01  0.00000E+00  9.000E+00
     -13     1     3     3     0     0 -1.581856846E+01 -4.568920204E+01  1.005831032E+02  1.116006366E+02  1.056583668E-01  0.00000E+00  9.000E+00
      -3     1     1     2     0   511  5.117849570E+00  6.942607722E+00  2.253189683E+02  2.254839899E+02  0.000000000E+00  0.00000E+00  9.000E+00
#pdf   3 -3 0.23261729E-01 0.21961812E-02 0.92917696E+02 0.28832870E+00 0.10183707E+01
#rwgt            1           8   320.06479439022132         54217137    18514489           0
</event>
<event>
      6  10013  3.31628E+03  3.07365E+01 -1.00000E+00  1.52277E-01
      -2    -1     0     0     0   501  0.000000000E+00  0.000000000E+00  1.963908260E+02  1.963908260E+02  0.000000000E+00  0.00000E+00  9.000E+00
      21    -1     0     0   501   511  0.000000000E+00  0.000000000E+00 -2.183349436E+01  2.183349436E+01  0.000000000E+00  0.00000E+00  9.000E+00
      23     2     1     2     0     0 -2.131269987E+01  2.214726586E+01  1.550666236E+02  1.818289874E+02  8.984091694E+01  0.00000E+00  9.000E+00
      13     1     3     3     0     0 -2.097394728E+01  4.847090027E+01  1.438025991E+02  1.531944297E+02  1.056583668E-01  0.00000E+00  9.000E+00
     -13     1     3     3     0     0 -3.387525910E-01 -2.632363442E+01  1.126402451E+01  2.863455769E+01  1.056583668E-01  0.00000E+00  9.000E+00
      -2     1     1     2     0   511  2.131269987E+01 -2.214726586E+01  1.949070811E+01  3.639533299E+01  0.000000000E+00  0.00000E+00  9.000E+00
#pdf  -2  2 0.24519763E-01 0.19478046E-02 0.89840917E+02 0.31058777E+00 0.12097204E+01
#rwgt            1           4   370.53400609190902         54217137    18514564           0
</event>
<event>
      6  10013  3.31628E+03  3.32669E+01 -1.00000E+00  1.49952E-01
       2    -1     0     0   511     0  0.000000000E+00  0.000000000E+00  1.884104342E+02  1.884104342E+02  0.000000000E+00  0.00000E+00  9.000E+00
      -2    -1     0     0     0   501  0.000000000E+00  0.000000000E+00 -2.253771784E+01  2.253771784E+01  0.000000000E+00  0.00000E+00  9.000E+00
      23     2     1     2     0     0  3.325377914E+01 -9.343278498E-01  1.206760479E+02  1.548284083E+02  9.111772982E+01  0.00000E+00  9.000E+00
      13     1     3     3     0     0  1.023263159E+01 -4.401844416E+01  3.917002134E+01  5.980494888E+01  1.056583668E-01  0.00000E+00  9.000E+00
     -13     1     3     3     0     0  2.302114755E+01  4.308411631E+01  8.150602656E+01  9.502345943E+01  1.056583668E-01  0.00000E+00  9.000E+00
      21     1     1     2   511   501 -3.325377914E+01  9.343278498E-01  4.519666842E+01  5.611974369E+01  1.261592536E-06  0.00000E+00  9.000E+00
#pdf   2 -2 0.19907352E-01 0.24677752E-02 0.91117730E+02 0.68005906E+00 0.10005346E+01
#rwgt            1           7   676.31726740649685         54217137    18514634           0
</event>
<event>
      6  10013  3.31628E+03  4.10739E+01 -1.00000E+00  1.44099E-01
       2    -1     0     0   501     0  0.000000000E+00  0.000000000E+00  7.814630133E+00  7.814630133E+00  0.000000000E+00  0.00000E+00  9.000E+00
      -2    -1     0     0     0   511  0.000000000E+00  0.000000000E+00 -6.651076465E+02  6.651076465E+02  0.000000000E+00  0.00000E+00  9.000E+00
      23     2     1     2     0     0  3.367384699E+01 -2.351888086E+01 -4.689730255E+02  4.801750725E+02  9.457978594E+01  0.00000E+00  9.000E+00
      13     1     3     3     0     0 -8.403365739E+00 -3.959675909E+01 -9.188339608E+01  1.004046290E+02  1.056583668E-01  0.00000E+00  9.000E+00
     -13     1     3     3     0     0  4.207721273E+01  1.607787823E+01 -3.770896294E+02  3.797704435E+02  1.056583668E-01  0.00000E+00  9.000E+00
      21     1     1     2   501   511 -3.367384699E+01  2.351888086E+01 -1.883199909E+02  1.927472041E+02  2.697398305E-06  0.00000E+00  9.000E+00
#pdf   2 -2 0.79038134E-03 0.66968916E-01 0.94579786E+02 0.16646518E+01 0.13722632E+00
#rwgt            1           7   348.38917205566690         54217137    18514760           0
</event>
<event>
      6  10013  3.31628E+03  4.40047E+01 -1.00000E+00  1.42286E-01
      21    -1     0     0   511   501  0.000000000E+00  0.000000000E+00  2.519314078E+01  2.519314078E+01  0.000000000E+00  0.00000E+00  9.000E+00
       2    -1     0     0   501     0  0.000000000E+00  0.000000000E+00 -2.793572127E+02  2.793572127E+02  0.000000000E+00  0.00000E+00  9.000E+00
      23     2     1     2     0     0 -3.404347472E+01  2.788290801E+01 -2.366739120E+02  2.571972076E+02  9.055080475E+01  0.00000E+00  9.000E+00
      13     1     3     3     0     0 -4.560970299E+01  2.241195872E+01 -2.388690005E+02  2.442149697E+02  1.056583668E-01  0.00000E+00  9.000E+00
     -13     1     3     3     0     0  1.156622827E+01  5.470949290E+00  2.195088464E+00  1.298223785E+01  1.056583668E-01  0.00000E+00  9.000E+00
       2     1     1     2   511     0  3.404347472E+01 -2.788290801E+01 -1.749015991E+01  4.735314587E+01  0.000000000E+00  0.00000E+00  9.000E+00
#pdf  -2  2 0.14199260E-02 0.34168997E-01 0.90550805E+02 0.12576443E+01 0.64660033E+00
#rwgt            1           4   901.71388535298627         54217137    18514841           0
</event>
<event>
      6  10013  3.31628E+03  3.97151E+01 -1.00000E+00  1.45002E-01
       2    -1     0     0   501     0  0.000000000E+00  0.000000000E+00  8.583851638E+02  8.583851638E+02  0.000000000E+00  0.00000E+00  9.000E+00
      21    -1     0     0   511   501  0.000000000E+00  0.000000000E+00 -6.302416175E+00  6.302416175E+00  0.000000000E+00  0.00000E+00  9.000E+00
      23     2     1     2     0     0 -2.365985786E+01  3.189832890E+01  6.985383717E+02  7.060900780E+02  9.502657118E+01  0.00000E+00  9.000E+00
      13     1     3     3     0     0  1.478375801E+01  5.003382102E+01  2.410600255E+02  2.466412167E+02  1.056583668E-01  0.00000E+00  9.000E+00
     -13     1     3     3     0     0 -3.844361586E+01 -1.813549212E+01  4.574783462E+02  4.594488612E+02  1.056583668E-01  0.00000E+00  9.000E+00
       2     1     1     2   511     0  2.365985786E+01 -3.189832890E+01  1.535443760E+02  1.585975021E+02  0.000000000E+00  0.00000E+00  9.000E+00
#pdf   2 -2 0.99691904E-01 0.53597375E-03 0.95026571E+02 0.60191317E+00 0.18593313E+01
#rwgt            1           7   1088.2901412925062         54217137    18514897           0
</event>
<event>
      6  10013  3.31628E+03  4.29761E+01 -1.00000E+00  1.42903E-01
      21    -1     0     0   511   501  0.000000000E+00  0.000000000E+00  5.054489259E+00  5.054489259E+00  0.000000000E+00  0.00000E+00  9.000E+00
       1    -1     0     0   501     0  0.000000000E+00  0.000000000E+00 -1.577764865E+03  1.577764865E+03  0.000000000E+00  0.00000E+00  9.000E+00
      23     2     1     2     0     0 -4.145169394E+01 -1.134464161E+01 -1.441621599E+03  1.444865698E+03  8.670125398E+01  0.00000E+00  9.000E+00
      13     1     3     3     0     0 -5.661642374E+01  1.381395532E+01 -6.236996846E+02  6.264164369E+02  1.056583668E-01  0.00000E+00  9.000E+00
     -13     1     3     3     0     0  1.516472980E+01 -2.515859693E+01 -8.179219142E+02  8.184492611E+02  1.056583668E-01  0.00000E+00  9.000E+00
       1     1     1     2   511     0  4.145169394E+01  1.134464161E+01 -1.310887770E+02  1.379536563E+02  0.000000000E+00  0.00000E+00  9.000E+00
#pdf  -1  1 0.22358583E-03 0.19893893E+00 0.86701254E+02 0.25322166E+01 0.23328263E+00
#rwgt            1           5   1366.7862227800347         54217137    18514955           0
</event>
<event>
      6  10013  3.31628E+03  1.19571E+00 -1.00000E+00  5.38999E-01
       2    -1     0     0   501     0  0.000000000E+00  0.000000000E+00  1.186855817E+02  1.186855817E+02  0.000000000E+00  0.00000E+00  9.000E+00
      -2    -1     0     0     0   511  0.000000000E+00  0.000000000E+00 -9.844025202E-01  9.844025202E-01  0.000000000E+00  0.00000E+00  9.000E+00
      23     2     1     2     0     0 -1.194184419E+00  6.037075005E-02  1.116031320E+02  1.134558149E+02  2.038462997E+01  0.00000E+00  9.000E+00
      13     1     3     3     0     0 -1.015027391E+01 -7.988183624E-01  3.941005593E+01  4.070417477E+01  1.056583668E-01  0.00000E+00  9.000E+00
     -13     1     3     3     0     0  8.956089488E+00  8.591891124E-01  7.219307603E+01  7.275164008E+01  1.056583668E-01  0.00000E+00  9.000E+00
      21     1     1     2   501   511  1.194184419E+00 -6.037075005E-02  6.098047180E+00  6.214169330E+00  0.000000000E+00  0.00000E+00  9.000E+00
#pdf   2 -2 0.17282520E-01 0.14226953E-03 0.20384630E+02 0.63612619E+00 0.19942815E+01
#rwgt            1           7   1513.6085916984803         54217137    18514995           0
</event>
<event>
      6  10013  3.31628E+03  2.39207E+00 -1.00000E+00  3.30124E-01
       2    -1     0     0   511     0  0.000000000E+00  0.000000000E+00  4.140392418E+03  4.140392418E+03  0.000000000E+00  0.00000E+00  9.000E+00
      -2    -1     0     0     0   501  0.000000000E+00  0.000000000E+00 -8.508071438E-02  8.508071438E-02  0.000000000E+00  0.00000E+00  9.000E+00
      23     2     1     2     0     0 -2.122984397E+00  1.102231169E+00  3.001525784E+03  3.001693434E+03  3.163403813E+01  0.00000E+00  9.000E+00
      13     1     3     3     0     0  1.399837481E+01 -4.409438702E+00  1.426114769E+03  1.426190290E+03  1.056583668E-01  0.00000E+00  9.000E+00
     -13     1     3     3     0     0 -1.612135920E+01  5.511669871E+00  1.575411016E+03  1.575503144E+03  1.056583668E-01  0.00000E+00  9.000E+00
      21     1     1     2   511   501  2.122984397E+00 -1.102231169E+00  1.138781553E+03  1.138784066E+03  1.525878906E-05  0.00000E+00  9.000E+00
#pdf   2 -2 0.46047150E+00 0.12859373E-04 0.31634038E+02 0.17070052E+00 0.48172803E+01
#rwgt            1           7   7232.9063468420454         54217137    18515195           0
</event>
<event>
      6  10013  3.31628E+03  1.35129E+01 -1.00000E+00  1.81715E-01
      -1    -1     0     0     0   501  0.000000000E+00  0.000000000E+00  7.520426419E+02  7.520426419E+02  0.000000000E+00  0.00000E+00  9.000E+00
       1    -1     0     0   511     0  0.000000000E+00  0.000000000E+00 -3.966512529E+00  3.966512529E+00  0.000000000E+00  0.00000E+00  9.000E+00
      23     2     1     2     0     0 -5.864343689E+00 -1.217403814E+01  6.949954597E+02  7.012354817E+02  9.235753385E+01  0.00000E+00  9.000E+00
      13     1     3     3     0     0 -4.208677326E+01  1.156010100E+01  2.211855457E+02  2.254506359E+02  1.056583668E-01  0.00000E+00  9.000E+00
     -13     1     3     3     0     0  3.622242957E+01 -2.373413914E+01  4.738099139E+02  4.757848458E+02  1.056583668E-01  0.00000E+00  9.000E+00
      21     1     1     2   511   501  5.864343689E+00  1.217403814E+01  5.308066966E+01  5.477367272E+01  9.536743164E-07  0.00000E+00  9.000E+00
#pdf  -1  1 0.10627095E+00 0.47494510E-03 0.92357534E+02 0.10663276E+00 0.19726136E+01
#rwgt            1           5   330.40369750575610         54217137    18515282           0
</event>
<event>
      6  10013  3.31628E+03  4.90176E+00 -1.00000E+00  2.44172E-01
       1    -1     0     0   501     0  0.000000000E+00  0.000000000E+00  6.135765534E+01  6.135765534E+01  0.000000000E+00  0.00000E+00  9.000E+00
      21    -1     0     0   511   501  0.000000000E+00  0.000000000E+00 -6.501107075E+01  6.501107075E+01  0.000000000E+00  0.00000E+00  9.000E+00
      23     2     1     2     0     0 -4.866860708E+00  5.838623599E-01  1.534431841E+01  1.067488097E+02  1.055264566E+02  0.00000E+00  9.000E+00
      13     1     3     3     0     0  2.631285305E+00 -2.654693632E-01  6.070597857E+01  6.076364978E+01  1.056583668E-01  0.00000E+00  9.000E+00
     -13     1     3     3     0     0 -7.498146013E+00  8.493317231E-01 -4.536166016E+01  4.598515994E+01  1.056583668E-01  0.00000E+00  9.000E+00
       1     1     1     2   511     0  4.866860708E+00 -5.838623599E-01 -1.899773382E+01  1.961991638E+01  0.000000000E+00  0.00000E+00  9.000E+00
#pdf   1 -1 0.93816634E-02 0.70235416E-02 0.10552646E+03 0.69562822E+00 0.64764824E+00
#rwgt            1           6   704.81426359742898         54217137    18515339           0
</event>
<event>
      6  10013  3.31628E+03  2.91014E+00 -1.00000E+00  3.00791E-01
       2    -1     0     0   501     0  0.000000000E+00  0.000000000E+00  2.529090787E+03  2.529090787E+03  0.000000000E+00  0.00000E+00  9.000E+00
      -2    -1     0     0     0   511  0.000000000E+00  0.000000000E+00 -7.868194004E-02  7.868194004E-02  0.000000000E+00  0.00000E+00  9.000E+00
      23     2     1     2     0     0 -1.012300243E-01  2.908374872E+00  2.306863947E+03  2.307002251E+03  2.509271218E+01  0.00000E+00  9.000E+00
      13     1     3     3     0     0  4.782777304E+00  1.302847519E+01  1.150876314E+03  1.150959999E+03  1.056583668E-01  0.00000E+00  9.000E+00
     -13     1     3     3     0     0 -4.884007329E+00 -1.012010032E+01  1.155987633E+03  1.156042252E+03  1.056583668E-01  0.00000E+00  9.000E+00
      21     1     1     2   501   511  1.012300243E-01 -2.908374872E+00  2.221481581E+02  2.221672186E+02  0.000000000E+00  0.00000E+00  9.000E+00
#pdf   2 -2 0.35254976E+00 0.10567885E-04 0.25092712E+02 0.32044147E+00 0.46659467E+01
#rwgt            1           7   7454.8939736324674         54217137    18515438           0
</event>
<event>
      6  10013  3.31628E+03  5.03026E+00 -1.00000E+00  2.37972E-01
      21    -1     0     0   511   501  0.000000000E+00  0.000000000E+00  1.671626879E+01  1.671626879E+01  0.000000000E+00  0.00000E+00  9.000E+00
       2    -1     0     0   501     0  0.000000000E+00  0.000000000E+00 -3.391964669E+02  3.391964669E+02  0.000000000E+00  0.00000E+00  9.000E+00
      23     2     1     2     0     0  4.803062932E+00  1.494704164E+00 -3.327183693E+02  3.445055579E+02  8.920348959E+01  0.00000E+00  9.000E+00
      13     1     3     3     0     0  2.531718672E+01  8.217161780E+00 -2.661218543E+01  3.763909228E+01  1.056583668E-01  0.00000E+00  9.000E+00
     -13     1     3     3     0     0 -2.051412378E+01 -6.722457616E+00 -3.061061839E+02  3.068664656E+02  1.056583668E-01  0.00000E+00  9.000E+00
       2     1     1     2   511     0 -4.803062932E+00 -1.494704164E+00  1.023817126E+01  1.140717778E+01  0.000000000E+00  0.00000E+00  9.000E+00
#pdf  -2  2 0.90526861E-03 0.52011517E-01 0.89203490E+02 0.15013374E+01 0.63184668E+00
#rwgt            1           4   944.50662582892858         54217137    18515517           0
</event>
<event>
      6  10013  3.31628E+03  1.59595E+01 -1.00000E+00  1.74838E-01
       2    -1     0     0   501     0  0.000000000E+00  0.000000000E+00  2.611319757E+01  2.611319757E+01  0.000000000E+00  0.00000E+00  9.000E+00
      21    -1     0     0   511   501  0.000000000E+00  0.000000000E+00 -2.833634872E+01  2.833634872E+01  0.000000000E+00  0.00000E+00  9.000E+00
      23     2     1     2     0     0 -1.392012383E+01  7.806155800E+00 -8.731194236E+00  3.721410198E+01  3.246459175E+01  0.00000E+00  9.000E+00
      13     1     3     3     0     0 -2.899676985E+00 -1.235070695E+01 -1.416181198E-01  1.268776214E+01  1.056583668E-01  0.00000E+00  9.000E+00
     -13     1     3     3     0     0 -1.102044684E+01  2.015686275E+01 -8.589576116E+00  2.452633984E+01  1.056583668E-01  0.00000E+00  9.000E+00
       2     1     1     2   511     0  1.392012383E+01 -7.806155800E+00  6.508043083E+00  1.723544431E+01  0.000000000E+00  0.00000E+00  9.000E+00
#pdf   2 -2 0.19662477E-02 0.31717209E-02 0.32464592E+02 0.10311273E+01 0.77706557E+00
#rwgt            1           7   792.19087509661119         54217137    18515693           0
</event>
<event>
      6  10013  3.31628E+03  5.62326E+00 -1.00000E+00  2.29855E-01
       1    -1     0     0   501     0  0.000000000E+00  0.000000000E+00  3.871820522E+01  3.871820522E+01  0.000000000E+00  0.00000E+00  9.000E+00
      -1    -1     0     0     0   511  0.000000000E+00  0.000000000E+00 -6.389805985E+01  6.389805985E+01  0.000000000E+00  0.00000E+00  9.000E+00
      23     2     1     2     0     0  5.478006624E+00  1.269841680E+00 -1.857374759E+01  9.394091466E+01  9.191458150E+01  0.00000E+00  9.000E+00
      13     1     3     3     0     0  8.492517031E+00 -3.327258588E+01  2.183598333E+01  4.069409230E+01  1.056583668E-01  0.00000E+00  9.000E+00
     -13     1     3     3     0     0 -3.014510407E+00  3.454242756E+01 -4.040973092E+01  5.324682236E+01  1.056583668E-01  0.00000E+00  9.000E+00
      21     1     1     2   501   511 -5.478006624E+00 -1.269841680E+00 -6.606107045E+00  8.675350411E+00  1.884864366E-07  0.00000E+00  9.000E+00
#pdf   1 -1 0.57866551E-02 0.86388220E-02 0.91914582E+02 0.80539668E+00 0.58081056E+00
#rwgt            1           6   806.91568491218777         54217137    18515786           0
</event>
<event>
      6  10013  3.31628E+03  5.79657E+00 -1.00000E+00  2.27744E-01
      -2    -1     0     0     0   501  0.000000000E+00  0.000000000E+00  1.014233549E+00  1.014233549E+00  0.000000000E+00  0.00000E+00  9.000E+00
      21    -1     0     0   501   511  0.000000000E+00  0.000000000E+00 -7.347944609E+02  7.347944609E+02  0.000000000E+00  0.00000E+00  9.000E+00
      23     2     1     2     0     0  5.584882788E+00  1.552207386E+00 -2.112952257E+02  2.132915395E+02  2.853082817E+01  0.00000E+00  9.000E+00
      13     1     3     3     0     0  1.244831209E+01  7.532274938E-01 -1.971942543E+02  1.975882409E+02  1.056583668E-01  0.00000E+00  9.000E+00
     -13     1     3     3     0     0 -6.863429301E+00  7.989798918E-01 -1.410097137E+01  1.570329863E+01  1.056583668E-01  0.00000E+00  9.000E+00
      -2     1     1     2     0   511 -5.584882788E+00 -1.552207386E+00 -5.224850017E+02  5.225171550E+02  0.000000000E+00  0.00000E+00  9.000E+00
#pdf  -2  2 0.15048812E-03 0.32006622E-01 0.28530828E+02 0.21799914E+01 0.63030612E+00
#rwgt            1           4   1483.6353268023604         54217137    18515877           0
</event>
<event>
      6  10013  3.31628E+03  1.19050E+02 -1.00000E+00  1.20493E-01
      -1    -1     0     0     0   511  0.000000000E+00  0.000000000E+00  1.951930720E+01  1.951930720E+01  0.000000000E+00  0.00000E+00  9.000E+00
       1    -1     0     0   501     0  0.000000000E+00  0.000000000E+00 -9.703050706E+02  9.703050706E+02  0.000000000E+00  0.00000E+00  9.000E+00
      23     2     1     2     0     0 -1.169952134E+02 -2.202499743E+01 -6.284246811E+02  6.461826343E+02  9.198606750E+01  0.00000E+00  9.000E+00
      13     1     3     3     0     0 -9.085895775E+00  4.202064445E+00 -2.281364702E+00  1.026774738E+01  1.056583668E-01  0.00000E+00  9.000E+00
     -13     1     3     3     0     0 -1.079093177E+02 -2.622706187E+01 -6.261433164E+02  6.359148869E+02  1.056583668E-01  0.00000E+00  9.000E+00
      21     1     1     2   501   511  1.169952134E+02  2.202499743E+01 -3.223610823E+02  3.436417435E+02  5.394796609E-06  0.00000E+00  9.000E+00
#pdf  -1  1 0.83519320E-03 0.59947414E-01 0.91986068E+02 0.15647038E+01 0.42476904E+00
#rwgt            1           5   755.74075928415675         54217137    18515969           0
</event>
<event>
      6  10013  3.31628E+03  3.78127E+00 -1.00000E+00  2.69247E-01
       2    -1     0     0   511     0  0.000000000E+00  0.000000000E+00  8.526046062E+02  8.526046062E+02  0.000000000E+00  0.00000E+00  9.000E+00
      -2    -1     0     0     0   501  0.000000000E+00  0.000000000E+00 -1.015551051E+01  1.015551051E+01  0.000000000E+00  0.00000E+00  9.000E+00
      23     2     1     2     0     0  3.778879918E+00 -1.343496369E-01  2.078445020E+02  2.281442578E+02  9.400089039E+01  0.00000E+00  9.000E+00
      13     1     3     3     0     0  2.076409071E+01 -1.357407856E+01  2.047704625E+02  2.062676817E+02  1.056583668E-01  0.00000E+00  9.000E+00
     -13     1     3     3     0     0 -1.698521079E+01  1.343972893E+01  3.074039537E+00  2.187657610E+01  1.056583668E-01  0.00000E+00  9.000E+00
      21     1     1     2   511   501 -3.778879918E+00  1.343496369E-01  6.346045937E+02  6.346158589E+02  0.000000000E+00  0.00000E+00  9.000E+00
#pdf   2 -2 0.33510496E-01 0.15602578E-02 0.94000890E+02 0.64787821E+00 0.12169063E+01
#rwgt            1           7   1148.2493169771135         54217137    18515996           0
</event>
<event>
      6  10013  3.31628E+03  8.99765E+00 -1.00000E+00  2.01152E-01
      21    -1     0     0   511   501  0.000000000E+00  0.000000000E+00  2.348797810E+00  2.348797810E+00  0.000000000E+00  0.00000E+00  9.000E+00
       1    -1     0     0   501     0  0.000000000E+00  0.000000000E+00 -1.213320200E+03  1.213320200E+03  0.000000000E+00  0.00000E+00  9.000E+00
      23     2     1     2     0     0  5.406849499E+00 -7.191919399E+00 -1.170234346E+03  1.173950112E+03  9.289500554E+01  0.00000E+00  9.000E+00
      13     1     3     3     0     0  2.849227279E+01 -4.183048752E+01 -7.298544236E+02  7.316071966E+02  1.056583668E-01  0.00000E+00  9.000E+00
     -13     1     3     3     0     0 -2.308542329E+01  3.463856812E+01 -4.403799226E+02  4.423429151E+02  1.056583668E-01  0.00000E+00  9.000E+00
       1     1     1     2   511     0 -5.406849499E+00  7.191919399E+00 -4.073705617E+01  4.171888627E+01  0.000000000E+00  0.00000E+00  9.000E+00
#pdf  -1  1 0.28449673E-03 0.17948194E+00 0.92895006E+02 0.23531273E+01 0.25518526E+00
#rwgt            1           5   1101.6971998231065         54217137    18516148           0
</event>
<event>
      5  10013  3.31628E+03  8.94427E-01 -1.00000E+00  7.16553E-01
      -2    -1     0     0     0   501  0.000000000E+00  0.000000000E+00  9.417923673E-01  9.417923673E-01  0.000000000E+00  0.00000E+00  9.000E+00
       2    -1     0     0   501     0  0.000000000E+00  0.000000000E+00 -1.255128682E+02  1.255128682E+02  0.000000000E+00  0.00000E+00  9.000E+00
      23     2     1     2     0     0  0.000000000E+00  0.000000000E+00 -1.245710758E+02  1.264546606E+02  2.174461416E+01  0.00000E+00  9.000E+00
      13     1     3     3     0     0 -1.846457782E+00  5.919019518E+00 -1.142196973E+02  1.143879129E+02  1.056583668E-01  0.00000E+00  9.000E+00
     -13     1     3     3     0     0  1.846457782E+00 -5.919019518E+00 -1.035137850E+01  1.206674766E+01  1.056583668E-01  0.00000E+00  9.000E+00
#pdf  -2  2 0.14489113E-03 0.19309672E-01 0.21744614E+02 0.20258945E+01 0.63445943E+00
#rwgt            1           4   1315.9180998769209         54217137    18516231           0
</event>
<event>
      6  10013  3.31628E+03  1.51539E+01 -1.00000E+00  1.76920E-01
       2    -1     0     0   511     0  0.000000000E+00  0.000000000E+00  1.444852902E+02  1.444852902E+02  0.000000000E+00  0.00000E+00  9.000E+00
      -2    -1     0     0     0   501  0.000000000E+00  0.000000000E+00 -8.616858288E+00  8.616858288E+00  0.000000000E+00  0.00000E+00  9.000E+00
      23     2     1     2     0     0  1.485317737E+01  3.003979645E+00  7.704021642E+01  9.235348834E+01  4.862438782E+01  0.00000E+00  9.000E+00
      13     1     3     3     0     0  3.804550909E+00 -4.133647251E+00 -6.033528229E+00  8.244772514E+00  1.056583668E-01  0.00000E+00  9.000E+00
     -13     1     3     3     0     0  1.104862646E+01  7.137626896E+00  8.307374465E+01  8.410871582E+01  1.056583668E-01  0.00000E+00  9.000E+00
      21     1     1     2   511   501 -1.485317737E+01 -3.003979645E+00  5.882821546E+01  6.074866011E+01  9.536743164E-07  0.00000E+00  9.000E+00
#pdf   2 -2 0.12440145E-01 0.11245950E-02 0.48624388E+02 0.70278189E+00 0.12405670E+01
#rwgt            1           7   2333.1173703772174         54217137    18516592           0
</event>
<event>
      6  10013  3.31628E+03  1.34727E+01 -1.00000E+00  1.81843E-01
      -2    -1     0     0     0   501  0.000000000E+00  0.000000000E+00  1.340267038E+02  1.340267038E+02  0.000000000E+00  0.00000E+00  9.000E+00
       2    -1     0     0   511     0  0.000000000E+00  0.000000000E+00 -2.365815710E+01  2.365815710E+01  0.000000000E+00  0.00000E+00  9.000E+00
      23     2     1     2     0     0 -1.224014289E+01  5.629525444E+00  1.063354190E+02  1.436214768E+02  9.559495069E+01  0.00000E+00  9.000E+00
      13     1     3     3     0     0  2.728032104E+01 -3.192208910E+01  4.442284341E+01  6.112802850E+01  1.056583668E-01  0.00000E+00  9.000E+00
     -13     1     3     3     0     0 -3.952046393E+01  3.755161455E+01  6.191257562E+01  8.249344827E+01  1.056583668E-01  0.00000E+00  9.000E+00
      21     1     1     2   511   501  1.224014289E+01 -5.629525444E+00  4.033127687E+00  1.406338415E+01  3.264680848E-07  0.00000E+00  9.000E+00
#pdf  -2  2 0.19039298E-01 0.28400911E-02 0.95594951E+02 0.36511176E+00 0.10778691E+01
#rwgt            1           4   453.55814739135968         54217137    18516725           0
</event>
<event>
      6  10013  3.31628E+03  1.32195E+01 -1.00000E+00  1.82664E-01
       3    -1     0     0   501     0  0.000000000E+00  0.000000000E+00  1.789150323E+02  1.789150323E+02  0.000000000E+00  0.00000E+00  9.000E+00
      21    -1     0     0   511   501  0.000000000E+00  0.000000000E+00 -7.788690384E+00  7.788690384E+00  0.000000000E+00  0.00000E+00  9.000E+00
      23     2     1     2     0     0 -1.090002327E+01 -7.479613466E+00  1.706313674E+02  1.734749614E+02  2.835037208E+01  0.00000E+00  9.000E+00
      13     1     3     3     0     0 -1.221735610E+01  1.468452938E-01  1.592087560E+02  1.596769380E+02  1.056583668E-01  0.00000E+00  9.000E+00
     -13     1     3     3     0     0  1.317332830E+00 -7.626458760E+00  1.142261131E+01  1.379802348E+01  1.056583668E-01  0.00000E+00  9.000E+00
       3     1     1     2   511     0  1.090002327E+01  7.479613466E+00  4.949745867E-01  1.322876127E+01  0.000000000E+00  0.00000E+00  9.000E+00
#pdf   3 -3 0.23989872E-01 0.19824529E-03 0.28350372E+02 0.26579238E+00 0.19328068E+01
#rwgt            1           8   95.954258847531008         54217137    18516851           0
</event>
<event>
      6  10013 -3.31628E+03  1.88479E+00 -1.00000E+00  3.75307E-01
      21    -1     0     0   511   501  0.000000000E+00  0.000000000E+00  7.847504241E+00  7.847504241E+00  0.000000000E+00  0.00000E+00  9.000E+00
       4    -1     0     0   501     0  0.000000000E+00  0.000000000E+00 -1.621407760E+01  1.621407760E+01  0.000000000E+00  0.00000E+00  9.000E+00
      23     2     1     2     0     0 -1.273840981E-02  1.884748750E+00 -8.858279306E+00  2.211370739E+01  2.017410474E+01  0.00000E+00  9.000E+00
      13     1     3     3     0     0  1.740622167E+00 -2.807070718E+00  5.771106518E+00  6.650281624E+00  1.056583668E-01  0.00000E+00  9.000E+00
     -13     1     3     3     0     0 -1.753360577E+00  4.691819468E+00 -1.462938582E+01  1.546342577E+01  1.056583668E-01  0.00000E+00  9.000E+00
       4     1     1     2   511     0  1.273840981E-02 -1.884748750E+00  4.917059488E-01  1.947874446E+00  0.000000000E+00  0.00000E+00  9.000E+00
#pdf  -4  4 0.10152272E-02 0.23721305E-02 0.20174105E+02 0.78333450E+00 0.55637643E+00
#rwgt            1           2  -1468.3345909229115         54217137    18516940           0
</event>
<event>
      6  10013  3.31628E+03  1.02764E+01 -1.00000E+00  1.94341E-01
      -1    -1     0     0     0   501  0.000000000E+00  0.000000000E+00  1.246333579E+02  1.246333579E+02  0.000000000E+00  0.00000E+00  9.000E+00
       1    -1     0     0   511     0  0.000000000E+00  0.000000000E+00 -2.427616728E+01  2.427616728E+01  0.000000000E+00  0.00000E+00  9.000E+00
      23     2     1     2     0     0  8.696987895E+00  5.474149679E+00  1.064568191E+02  1.369592373E+02  8.555217372E+01  0.00000E+00  9.000E+00
      13     1     3     3     0     0  1.589022525E+01  4.061651618E+01  3.130777183E+01  5.368787931E+01  1.056583668E-01  0.00000E+00  9.000E+00
     -13     1     3     3     0     0 -7.193237356E+00 -3.514236650E+01  7.514904729E+01  8.327135797E+01  1.056583668E-01  0.00000E+00  9.000E+00
      21     1     1     2   511   501 -8.696987895E+00 -5.474149679E+00 -6.099628484E+00  1.195028790E+01  3.039252468E-07  0.00000E+00  9.000E+00
#pdf  -1  1 0.18590676E-01 0.23295939E-02 0.85552174E+02 0.39310403E+00 0.10956941E+01
#rwgt            1           5   516.73591497736300         54217137    18517045           0
</event>
<event>
      6  10013  3.31628E+03  3.88028E+00 -1.00000E+00  2.66508E-01
      21    -1     0     0   511   501  0.000000000E+00  0.000000000E+00  2.789133842E+00  2.789133842E+00  0.000000000E+00  0.00000E+00  9.000E+00
       1    -1     0     0   501     0  0.000000000E+00  0.000000000E+00 -1.255112352E+03  1.255112352E+03  0.000000000E+00  0.00000E+00  9.000E+00
      23     2     1     2     0     0  3.605767211E+00 -1.433540185E+00 -1.244746525E+03  1.249388973E+03  1.075352864E+02  0.00000E+00  9.000E+00
      13     1     3     3     0     0  1.850194292E+01 -1.874852340E+01 -7.629297464E+01  8.071219341E+01  1.056583668E-01  0.00000E+00  9.000E+00
     -13     1     3     3     0     0 -1.489617570E+01  1.731498322E+01 -1.168453551E+03  1.168676780E+03  1.056583668E-01  0.00000E+00  9.000E+00
       1     1     1     2   511     0 -3.605767211E+00  1.433540185E+00 -7.576692792E+00  8.512512455E+00  0.000000000E+00  0.00000E+00  9.000E+00
#pdf  -1  1 0.35687913E-03 0.19173180E+00 0.10753529E+03 0.22259767E+01 0.23755758E+00
#rwgt            1           5   531.89668509059584         54217137    18517128           0
</event>
<event>
      6  10013  3.31628E+03  5.87616E+00 -1.00000E+00  2.26808E-01
       2    -1     0     0   501     0  0.000000000E+00  0.000000000E+00  1.946984451E+01  1.946984451E+01  0.000000000E+00  0.00000E+00  9.000E+00
      21    -1     0     0   511   501  0.000000000E+00  0.000000000E+00 -1.425689899E+02  1.425689899E+02  0.000000000E+00  0.00000E+00  9.000E+00
      23     2     1     2     0     0  4.638365024E+00  3.607609713E+00 -8.772844422E+01  1.261833498E+02  9.050651110E+01  0.00000E+00  9.000E+00
      13     1     3     3     0     0  2.498505787E+01 -5.583104469E+00 -9.822931901E+01  1.015107603E+02  1.056583668E-01  0.00000E+00  9.000E+00
     -13     1     3     3     0     0 -2.034669285E+01  9.190714182E+00  1.050087479E+01  2.467258949E+01  1.056583668E-01  0.00000E+00  9.000E+00
       2     1     1     2   511     0 -4.638365024E+00 -3.607609713E+00 -3.537070114E+01  3.585548462E+01  0.000000000E+00  0.00000E+00  9.000E+00
#pdf   2 -2 0.29518547E-02 0.16420182E-01 0.90506511E+02 0.10580198E+01 0.39768263E+00
#rwgt            1           7   428.69142143490490         54217137    18517245           0
</event>
<event>
      6  10013  3.31628E+03  7.00842E+00 -1.00000E+00  2.15409E-01
      21    -1     0     0   501   511  0.000000000E+00  0.000000000E+00  4.319449430E+01  4.319449430E+01  0.000000000E+00  0.00000E+00  9.000E+00
      -2    -1     0     0     0   501  0.000000000E+00  0.000000000E+00 -1.002188146E+02  1.002188146E+02  0.000000000E+00  0.00000E+00  9.000E+00
      23     2     1     2     0     0 -6.524647251E+00  2.558694566E+00 -9.870872935E+01  1.011438412E+02  2.091758626E+01  0.00000E+00  9.000E+00
      13     1     3     3     0     0  3.674967427E+00 -3.018769139E+00 -5.757759791E+00  7.468688921E+00  1.056583668E-01  0.00000E+00  9.000E+00
     -13     1     3     3     0     0 -1.019961468E+01  5.577463705E+00 -9.295096956E+01  9.367515224E+01  1.056583668E-01  0.00000E+00  9.000E+00
      -2     1     1     2     0   511  6.524647251E+00 -2.558694566E+00  4.168440909E+01  4.226946771E+01  0.000000000E+00  0.00000E+00  9.000E+00
#pdf   2 -2 0.17761220E-03 0.14576848E-01 0.20917586E+02 0.19022627E+01 0.38164374E+00
#rwgt            1           7   596.05277651454310         54217137    18517319           0
</event>
<event>
      6  10013  3.31628E+03  2.00238E+00 -1.00000E+00  3.62616E-01
      -1    -1     0     0     0   511  0.000000000E+00  0.000000000E+00  1.261429266E+00  1.261429266E+00  0.000000000E+00  0.00000E+00  9.000E+00
       1    -1     0     0   501     0  0.000000000E+00  0.000000000E+00 -2.384871855E+02  2.384871855E+02  0.000000000E+00  0.00000E+00  9.000E+00
      23     2     1     2     0     0 -1.730916986E+00 -1.006704477E+00 -2.367058640E+02  2.376798433E+02  2.140169010E+01  0.00000E+00  9.000E+00
      13     1     3     3     0     0 -4.352586180E+00 -4.093394738E+00 -2.279919031E+02  2.280702084E+02  1.056583668E-01  0.00000E+00  9.000E+00
     -13     1     3     3     0     0  2.621669194E+00  3.086690261E+00 -8.713960854E+00  9.609634935E+00  1.056583668E-01  0.00000E+00  9.000E+00
      21     1     1     2   501   511  1.730916986E+00  1.006704477E+00 -5.198922795E-01  2.068771495E+00  9.365234591E-08  0.00000E+00  9.000E+00
#pdf  -1  1 0.74595699E-04 0.36332531E-01 0.21401690E+02 0.24702375E+01 0.46886040E+00
#rwgt            1           5   284.55736683542250         54217137    18517479           0
</event>
<event>
      6  10013  3.31628E+03  2.82576E+01 -1.00000E+00  1.54831E-01
       2    -1     0     0   501     0  0.000000000E+00  0.000000000E+00  1.557530591E+03  1.557530591E+03  0.000000000E+00  0.00000E+00  9.000E+00
      -2    -1     0     0     0   511  0.000000000E+00  0.000000000E+00 -5.852144647E+00  5.852144647E+00  0.000000000E+00  0.00000E+00  9.000E+00
      23     2     1     2     0     0  2.097451360E+01 -1.893573286E+01  1.518205234E+03  1.519576935E+03  5.803823820E+01  0.00000E+00  9.000E+00
      13     1     3     3     0     0 -4.024087938E+00 -3.073295013E+01  1.112177065E+03  1.112608890E+03  1.056583668E-01  0.00000E+00  9.000E+00
     -13     1     3     3     0     0  2.499860153E+01  1.179721727E+01  4.060281696E+02  4.069680455E+02  1.056583668E-01  0.00000E+00  9.000E+00
      21     1     1     2   501   511 -2.097451360E+01  1.893573286E+01  3.347321174E+01  4.380579989E+01  0.000000000E+00  0.00000E+00  9.000E+00
#pdf   2 -2 0.21009680E+00 0.94868559E-04 0.58038238E+02 0.49285343E+00 0.30993728E+01
#rwgt            1           7   967.39724352304313         54217137    18517628           0
</event>
<event>
      6  10013  3.31628E+03  1.91222E+00 -1.00000E+00  3.72192E-01
      -2    -1     0     0     0   511  0.000000000E+00  0.000000000E+00  2.383262643E+00  2.383262643E+00  0.000000000E+00  0.00000E+00  9.000E+00
       2    -1     0     0   501     0  0.000000000E+00  0.000000000E+00 -8.863764175E+02  8.863764175E+02  0.000000000E+00  0.00000E+00  9.000E+00
      23     2     1     2     0     0 -1.474955521E+00  1.217000387E+00 -8.683354177E+02  8.729856091E+02  8.996565742E+01  0.00000E+00  9.000E+00
      13     1     3     3     0     0  2.889263731E+01 -2.619011213E+01 -2.252681272E+02  2.286185618E+02  1.056583668E-01  0.00000E+00  9.000E+00
     -13     1     3     3     0     0 -3.036759283E+01  2.740711252E+01 -6.430672904E+02  6.443670473E+02  1.056583668E-01  0.00000E+00  9.000E+00
      21     1     1     2   501   511  1.474955521E+00 -1.217000387E+00 -1.565773718E+01  1.577407105E+01  2.920019320E-07  0.00000E+00  9.000E+00
#pdf  -2  2 0.35762626E-03 0.13391752E+00 0.89965657E+02 0.21433853E+01 0.57213868E+00
#rwgt            1           4   1335.1390113226632         54217137    18517694           0
</event>
<event>
      6  10013  3.31628E+03  1.00658E+00 -1.00000E+00  6.46487E-01
      -3    -1     0     0     0   511  0.000000000E+00  0.000000000E+00  1.769168293E+01  1.769168293E+01  0.000000000E+00  0.00000E+00  9.000E+00
       3    -1     0     0   501     0  0.000000000E+00  0.000000000E+00 -1.494423997E+02  1.494423997E+02  0.000000000E+00  0.00000E+00  9.000E+00
      23     2     1     2     0     0 -4.441556520E-01 -9.032915262E-01 -1.349777031E+02  1.637537498E+02  9.271082488E+01  0.00000E+00  9.000E+00
      13     1     3     3     0     0 -4.276011328E+01 -1.705014862E+00 -1.002647350E+02  1.090154237E+02  1.056583668E-01  0.00000E+00  9.000E+00
     -13     1     3     3     0     0  4.231595763E+01  8.017233361E-01 -3.471296811E+01  5.473832614E+01  1.056583668E-01  0.00000E+00  9.000E+00
      21     1     1     2   501   511  4.441556520E-01  9.032915262E-01  3.226986254E+00  3.380332840E+00  9.424321831E-08  0.00000E+00  9.000E+00
#pdf  -3  3 0.22134116E-02 0.22977988E-01 0.92710825E+02 0.10146184E+01 0.29085476E+00
#rwgt            1           3   396.27438637977826         54217137    18518183           0
</event>
<event>
      6  10013  3.31628E+03  1.17477E+01 -1.00000E+00  1.87950E-01
       2    -1     0     0   501     0  0.000000000E+00  0.000000000E+00  2.677677227E+02  2.677677227E+02  0.000000000E+00  0.00000E+00  9.000E+00
      21    -1     0     0   511   501  0.000000000E+00  0.000000000E+00 -1.117758381E+01  1.117758381E+01  0.000000000E+00  0.00000E+00  9.000E+00
      23     2     1     2     0     0 -1.158132732E+01  1.970396077E+00  1.860938331E+02  2.074768607E+02  9.098199513E+01  0.00000E+00  9.000E+00
      13     1     3     3     0     0  1.854852832E+01  2.437369844E+01  1.570482477E+02  1.600071509E+02  1.056583668E-01  0.00000E+00  9.000E+00
     -13     1     3     3     0     0 -3.012985564E+01 -2.240330237E+01  2.904558536E+01  4.746970982E+01  1.056583668E-01  0.00000E+00  9.000E+00
       2     1     1     2   511     0  1.158132732E+01 -1.970396077E+00  7.049630586E+01  7.146844579E+01  0.000000000E+00  0.00000E+00  9.000E+00
#pdf   2 -2 0.30025405E-01 0.16313056E-02 0.90981995E+02 0.65272765E+00 0.11892017E+01
#rwgt            1           7   899.58174876492990         54217137    18518487           0
</event>
<event>
      6  10013  3.31628E+03  7.51085E+00 -1.00000E+00  2.11250E-01
       2    -1     0     0   501     0  0.000000000E+00  0.000000000E+00  3.631660942E+03  3.631660942E+03  0.000000000E+00  0.00000E+00  9.000E+00
      21    -1     0     0   511   501  0.000000000E+00  0.000000000E+00 -6.648544592E-01  6.648544592E-01  0.000000000E+00  0.00000E+00  9.000E+00
      23     2     1     2     0     0  6.969018644E+00  2.801018869E+00  3.505112781E+03  3.506218621E+03  8.773252113E+01  0.00000E+00  9.000E+00
      13     1     3     3     0     0 -2.709493672E+01 -2.852872976E+01  1.210781388E+03  1.211420491E+03  1.056583668E-01  0.00000E+00  9.000E+00
     -13     1     3     3     0     0  3.406395536E+01  3.132974863E+01  2.294331393E+03  2.294798130E+03  1.056583668E-01  0.00000E+00  9.000E+00
       2     1     1     2   511     0 -6.969018644E+00 -2.801018869E+00  1.258833066E+02  1.261071759E+02  0.000000000E+00  0.00000E+00  9.000E+00
#pdf   2 -2 0.53736754E+00 0.84754563E-04 0.87732521E+02 0.80564396E-01 0.35772828E+01
#rwgt            1           7   2187.5697841092037         54217137    18518552           0
</event>
<event>
      6  10013  3.31628E+03  1.57907E+01 -1.00000E+00  1.75261E-01
       2    -1     0     0   501     0  0.000000000E+00  0.000000000E+00  1.209345568E+03  1.209345568E+03  0.000000000E+00  0.00000E+00  9.000E+00
      -2    -1     0     0     0   511  0.000000000E+00  0.000000000E+00 -2.669213365E+00  2.669213365E+00  0.000000000E+00  0.00000E+00  9.000E+00
      23     2     1     2     0     0 -1.410910780E+01  7.090691029E+00  1.130390627E+03  1.134111912E+03  9.042961022E+01  0.00000E+00  9.000E+00
      13     1     3     3     0     0 -1.160268124E+01  3.832889825E+01  9.617957581E+02  9.626291176E+02  1.056583668E-01  0.00000E+00  9.000E+00
     -13     1     3     3     0     0 -2.506426564E+00 -3.123820722E+01  1.685948688E+02  1.714827942E+02  1.056583668E-01  0.00000E+00  9.000E+00
      21     1     1     2   501   511  1.410910780E+01 -7.090691029E+00  7.628572789E+01  7.790286966E+01  2.132480600E-06  0.00000E+00  9.000E+00
#pdf   2 -2 0.17159604E+00 0.28198588E-03 0.90429610E+02 0.52863002E+00 0.23428217E+01
#rwgt            1           7   1732.9789779699970         54217137    18518655           0
</event>
<event>
      6  10013  3.31628E+03  2.18453E+01 -1.00000E+00  1.63227E-01
       2    -1     0     0   501     0  0.000000000E+00  0.000000000E+00  1.092521876E+03  1.092521876E+03  0.000000000E+00  0.00000E+00  9.000E+00
      21    -1     0     0   511   501  0.000000000E+00  0.000000000E+00 -6.228646507E+00  6.228646507E+00  0.000000000E+00  0.00000E+00  9.000E+00
      23     2     1     2     0     0 -1.615694617E+01  1.470277692E+01  1.062086454E+03  1.066143981E+03  9.032239263E+01  0.00000E+00  9.000E+00
      13     1     3     3     0     0 -4.257306200E+01 -8.628801085E+00  2.881888724E+02  2.914442642E+02  1.056583668E-01  0.00000E+00  9.000E+00
     -13     1     3     3     0     0  2.641611583E+01  2.333157801E+01  7.738975813E+02  7.746997168E+02  1.056583668E-01  0.00000E+00  9.000E+00
       2     1     1     2   511     0  1.615694617E+01 -1.470277692E+01  2.420677618E+01  3.260654185E+01  0.000000000E+00  0.00000E+00  9.000E+00
#pdf   2 -2 0.15912216E+00 0.30337060E-03 0.90322393E+02 0.54397709E+00 0.22799455E+01
#rwgt            1           7   1328.3342382112232         54217137    18518733           0
</event>
<event>
      6  10013  3.31628E+03  1.31382E+01 -1.00000E+00  1.82932E-01
       1    -1     0     0   501     0  0.000000000E+00  0.000000000E+00  2.812186363E+03  2.812186363E+03  0.000000000E+00  0.00000E+00  9.000E+00
      21    -1     0     0   511   501  0.000000000E+00  0.000000000E+00 -1.916603938E+00  1.916603938E+00  0.000000000E+00  0.00000E+00  9.000E+00
      23     2     1     2     0     0  1.103539203E+01  7.129717297E+00  2.773628295E+03  2.775177273E+03  9.177344996E+01  0.00000E+00  9.000E+00
      13     1     3     3     0     0 -2.412813349E+01  2.820659629E+01  5.912825620E+02  5.924465024E+02  1.056583668E-01  0.00000E+00  9.000E+00
     -13     1     3     3     0     0  3.516352552E+01 -2.107687899E+01  2.182345733E+03  2.182730771E+03  1.056583668E-01  0.00000E+00  9.000E+00
       1     1     1     2   511     0 -1.103539203E+01 -7.129717297E+00  3.664146442E+01  3.892569410E+01  0.000000000E+00  0.00000E+00  9.000E+00
#pdf   1 -1 0.42252344E+00 0.11794964E-03 0.91773450E+02 0.55688923E-01 0.32232034E+01
#rwgt            1           6   1104.5571473731818         54217137    18518811           0
</event>
<event>
      6  10013  3.31628E+03  4.67744E+00 -1.00000E+00  2.48328E-01
       2    -1     0     0   501     0  0.000000000E+00  0.000000000E+00  1.749456098E+03  1.749456098E+03  0.000000000E+00  0.00000E+00  9.000E+00
      -2    -1     0     0     0   511  0.000000000E+00  0.000000000E+00 -4.218884192E-01  4.218884192E-01  0.000000000E+00  0.00000E+00  9.000E+00
      23     2     1     2     0     0  4.670909852E+00  2.470117740E-01  1.671907263E+03  1.672609336E+03  4.823087336E+01  0.00000E+00  9.000E+00
      13     1     3     3     0     0  8.456330324E+00  1.864821549E+01  3.697373430E+02  3.703039015E+02  1.056583668E-01  0.00000E+00  9.000E+00
     -13     1     3     3     0     0 -3.785420472E+00 -1.840120372E+01  1.302169920E+03  1.302305435E+03  1.056583668E-01  0.00000E+00  9.000E+00
      21     1     1     2   501   511 -4.670909852E+00 -2.470117740E-01  7.712694622E+01  7.726864984E+01  1.907348633E-06  0.00000E+00  9.000E+00
#pdf   2 -2 0.25606914E+00 0.53753445E-04 0.48230873E+02 0.43436393E+00 0.35522501E+01
#rwgt            1           7   9473.1657111388195         54217137    18518924           0
</event>
<event>
      6  10013  3.31628E+03  1.27447E+01 -1.00000E+00  1.84269E-01
      21    -1     0     0   511   501  0.000000000E+00  0.000000000E+00  4.911402437E+00  4.911402437E+00  0.000000000E+00  0.00000E+00  9.000E+00
       2    -1     0     0   501     0  0.000000000E+00  0.000000000E+00 -5.555487333E+02  5.555487333E+02  0.000000000E+00  0.00000E+00  9.000E+00
      23     2     1     2     0     0 -1.204183500E+01 -4.173926024E+00 -4.791892721E+02  4.878842957E+02  9.080914104E+01  0.00000E+00  9.000E+00
      13     1     3     3     0     0  1.348666235E+01 -6.165559226E+00 -4.446052034E+02  4.448524500E+02  1.056583668E-01  0.00000E+00  9.000E+00
     -13     1     3     3     0     0 -2.552849735E+01  1.991633202E+00 -3.458406864E+01  4.303184573E+01  1.056583668E-01  0.00000E+00  9.000E+00
       2     1     1     2   511     0  1.204183500E+01  4.173926024E+00 -7.144805880E+01  7.257584002E+01  0.000000000E+00  0.00000E+00  9.000E+00
#pdf  -2  2 0.66235656E-03 0.73668290E-01 0.90809141E+02 0.17003914E+01 0.61982835E+00
#rwgt            1           4   1381.2797201499313         54217137    18519020           0
</event>
<event>
      6  10013  3.31628E+03  1.42257E+01 -1.00000E+00  1.79531E-01
       4    -1     0     0   511     0  0.000000000E+00  0.000000000E+00  5.248654547E+01  5.248654547E+01  0.000000000E+00  0.00000E+00  9.000E+00
      -4    -1     0     0     0   501  0.000000000E+00  0.000000000E+00 -6.610139293E+01  6.610139293E+01  0.000000000E+00  0.00000E+00  9.000E+00
      23     2     1     2     0     0 -1.390812191E+01  2.989018762E+00 -2.886072389E+01  9.773591605E+01  9.228758212E+01  0.00000E+00  9.000E+00
      13     1     3     3     0     0 -3.522323374E+01 -2.948356586E+01 -3.585050715E+01  5.826857539E+01  1.056583668E-01  0.00000E+00  9.000E+00
     -13     1     3     3     0     0  2.131511184E+01  3.247258463E+01  6.989783259E+00  3.946734066E+01  1.056583668E-01  0.00000E+00  9.000E+00
      21     1     1     2   511   501  1.390812191E+01 -2.989018762E+00  1.524587643E+01  2.085202235E+01  2.920019320E-07  0.00000E+00  9.000E+00
#pdf   4 -4 0.52362484E-02 0.96245314E-02 0.92287582E+02 0.52060971E+00 0.35907063E+00
#rwgt            1           9   163.66260087898868         54217137    18519067           0
</event>
<event>
      6  10013  3.31628E+03  5.32319E+00 -1.00000E+00  2.33775E-01
      -1    -1     0     0     0   511  0.000000000E+00  0.000000000E+00  1.040782049E+02  1.040782049E+02  0.000000000E+00  0.00000E+00  9.000E+00
       1    -1     0     0   501     0  0.000000000E+00  0.000000000E+00 -2.315076493E+01  2.315076493E+01  0.000000000E+00  0.00000E+00  9.000E+00
      23     2     1     2     0     0  5.321966187E+00 -1.140851346E-01  7.274908231E+01  1.174708003E+02  9.207944178E+01  0.00000E+00  9.000E+00
      13     1     3     3     0     0 -2.564863889E+01  3.620533049E+01  3.191357336E+01  5.465497197E+01  1.056583668E-01  0.00000E+00  9.000E+00
     -13     1     3     3     0     0  3.097060507E+01 -3.631941562E+01  4.083550895E+01  6.281582830E+01  1.056583668E-01  0.00000E+00  9.000E+00
      21     1     1     2   501   511 -5.321966187E+00  1.140851346E-01  8.178357671E+00  9.758169588E+00  0.000000000E+00  0.00000E+00  9.000E+00
#pdf  -1  1 0.14607909E-01 0.34343979E-02 0.92079442E+02 0.44789639E+00 0.96351911E+00
#rwgt            1           5   503.98212411471633         54217137    18519186           0
</event>
<event>
      6  10013  3.31628E+03  4.58463E+00 -1.00000E+00  2.50152E-01
       1    -1     0     0   501     0  0.000000000E+00  0.000000000E+00  2.845394213E+02  2.845394213E+02  0.000000000E+00  0.00000E+00  9.000E+00
      -1    -1     0     0     0   511  0.000000000E+00  0.000000000E+00 -8.784358249E+00  8.784358249E+00  0.000000000E+00  0.00000E+00  9.000E+00
      23     2     1     2     0     0  4.393255820E-01  4.563536106E+00  2.724503830E+02  2.876722506E+02  9.222306507E+01  0.00000E+00  9.000E+00
      13     1     3     3     0     0  2.633272693E+01  1.618914319E+01  2.488391393E+02  2.507517283E+02  1.056583668E-01  0.00000E+00  9.000E+00
     -13     1     3     3     0     0 -2.589340135E+01 -1.162560708E+01  2.361124370E+01  3.692052229E+01  1.056583668E-01  0.00000E+00  9.000E+00
      21     1     1     2   501   511 -4.393255820E-01 -4.563536106E+00  3.304680085E+00  5.651528927E+00  1.685873940E-07  0.00000E+00  9.000E+00
#pdf   1 -1 0.43033215E-01 0.11694687E-02 0.92223065E+02 0.46089176E+00 0.13718718E+01
#rwgt            1           6   994.87993671038987         54217137    18519366           0
</event>
<event>
      6  10013  3.31628E+03  1.06292E+01 -1.00000E+00  1.92686E-01
       3    -1     0     0   511     0  0.000000000E+00  0.000000000E+00  1.670534898E+01  1.670534898E+01  0.000000000E+00  0.00000E+00  9.000E+00
      -3    -1     0     0     0   501  0.000000000E+00  0.000000000E+00 -1.742718864E+02  1.742718864E+02  0.000000000E+00  0.00000E+00  9.000E+00
      23     2     1     2     0     0  1.037384928E+01  2.316046302E+00 -1.529585732E+02  1.793921521E+02  9.312485341E+01  0.00000E+00  9.000E+00
      13     1     3     3     0     0 -2.675858607E+01  1.386784893E+01 -1.080782582E+01  3.201811089E+01  1.056583668E-01  0.00000E+00  9.000E+00
     -13     1     3     3     0     0  3.713243535E+01 -1.155180263E+01 -1.421507473E+02  1.473740412E+02  1.056583668E-01  0.00000E+00  9.000E+00
      21     1     1     2   511   501 -1.037384928E+01 -2.316046302E+00 -4.607964273E+00  1.158508326E+01  2.064765462E-07  0.00000E+00  9.000E+00
#pdf   3 -3 0.20202351E-02 0.25400518E-01 0.93124853E+02 0.10559490E+01 0.27037437E+00
#rwgt            1           8   467.31834499521210         54217137    18519469           0
</event>
<event>
      6  10013  3.31628E+03  3.20592E+00 -1.00000E+00  2.88254E-01
       3    -1     0     0   501     0  0.000000000E+00  0.000000000E+00  4.624574065E+01  4.624574065E+01  0.000000000E+00  0.00000E+00  9.000E+00
      21    -1     0     0   511   501  0.000000000E+00  0.000000000E+00 -2.552205381E+02  2.552205381E+02  0.000000000E+00  0.00000E+00  9.000E+00
      23     2     1     2     0     0 -2.827910594E+00  1.510246718E+00  1.808575468E+00  9.065852693E+01  9.058377138E+01  0.00000E+00  9.000E+00
      13     1     3     3     0     0 -3.718529776E+01 -2.680546675E+01  4.467761314E+00  4.605704585E+01  1.056583668E-01  0.00000E+00  9.000E+00
     -13     1     3     3     0     0  3.435738717E+01  2.831571347E+01 -2.659185847E+00  4.460148109E+01  1.056583668E-01  0.00000E+00  9.000E+00
       3     1     1     2   511     0  2.827910594E+00 -1.510246718E+00 -2.107833730E+02  2.108077519E+02  0.000000000E+00  0.00000E+00  9.000E+00
#pdf   3 -3 0.71084035E-02 0.68303352E-02 0.90583771E+02 0.58627312E+00 0.59834858E+00
#rwgt            1           8   499.69834353432293         54217137    18519553           0
</event>
<event>
      6  10013  3.31628E+03  4.99316E+00 -1.00000E+00  2.42572E-01
       3    -1     0     0   511     0  0.000000000E+00  0.000000000E+00  1.205738824E+03  1.205738824E+03  0.000000000E+00  0.00000E+00  9.000E+00
      -3    -1     0     0     0   501  0.000000000E+00  0.000000000E+00 -2.351385544E+00  2.351385544E+00  0.000000000E+00  0.00000E+00  9.000E+00
      23     2     1     2     0     0 -2.387867181E-01 -4.987445841E+00  8.881455112E+02  8.928087411E+02  9.099487628E+01  0.00000E+00  9.000E+00
      13     1     3     3     0     0  3.868243980E+01  1.930041067E+01  5.249730743E+02  5.267500137E+02  1.056583668E-01  0.00000E+00  9.000E+00
     -13     1     3     3     0     0 -3.892122652E+01 -2.428785651E+01  3.631724368E+02  3.660587274E+02  1.056583668E-01  0.00000E+00  9.000E+00
      21     1     1     2   511   501  2.387867181E-01  4.987445841E+00  3.152419273E+02  3.152814684E+02  3.814697266E-06  0.00000E+00  9.000E+00
#pdf   3 -3 0.13679069E+00 0.35817116E-03 0.90994876E+02 0.37106136E-01 0.20972674E+01
#rwgt            1           8   129.58546306195367         54217137    18519648           0
</event>
<event>
      6  10013  3.31628E+03  1.08699E+02 -1.00000E+00  1.22198E-01
      -2    -1     0     0     0   501  0.000000000E+00  0.000000000E+00  1.093021675E+03  1.093021675E+03  0.000000000E+00  0.00000E+00  9.000E+00
       2    -1     0     0   511     0  0.000000000E+00  0.000000000E+00 -3.301152527E+01  3.301152527E+01  0.000000000E+00  0.00000E+00  9.000E+00
      23     2     1     2     0     0  1.074956710E+02 -1.613136557E+01  9.817642025E+02  9.921004989E+02  9.266558339E+01  0.00000E+00  9.000E+00
      13     1     3     3     0     0  8.905441532E+01 -4.238913780E+01  5.231979545E+02  5.324130339E+02  1.056583668E-01  0.00000E+00  9.000E+00
     -13     1     3     3     0     0  1.844125565E+01  2.625777223E+01  4.585662480E+02  4.596874650E+02  1.056583668E-01  0.00000E+00  9.000E+00
      21     1     1     2   511   501 -1.074956710E+02  1.613136557E+01  7.824594713E+01  1.339327013E+02  3.162979880E-06  0.00000E+00  9.000E+00
#pdf  -2  2 0.98503424E-01 0.51582086E-03 0.92665583E+02 0.87744681E-01 0.19298648E+01
#rwgt            1           4   283.39108013813905         54217137    18519830           0
</event>
<event>
      6  10013  3.31628E+03  8.94388E+00 -1.00000E+00  2.01471E-01
       1    -1     0     0   501     0  0.000000000E+00  0.000000000E+00  6.303625315E+02  6.303625315E+02  0.000000000E+00  0.00000E+00  9.000E+00
      21    -1     0     0   511   501  0.000000000E+00  0.000000000E+00 -4.408525904E+00  4.408525904E+00  0.000000000E+00  0.00000E+00  9.000E+00
      23     2     1     2     0     0 -6.307216633E+00  6.341293051E+00  6.068915150E+02  6.137146682E+02  9.082064740E+01  0.00000E+00  9.000E+00
      13     1     3     3     0     0 -1.154590858E+01 -4.091072171E+01  2.372171760E+02  2.409958400E+02  1.056583668E-01  0.00000E+00  9.000E+00
     -13     1     3     3     0     0  5.238691949E+00  4.725201476E+01  3.696743390E+02  3.727188281E+02  1.056583668E-01  0.00000E+00  9.000E+00
       1     1     1     2   511     0  6.307216633E+00 -6.341293051E+00  1.906249067E+01  2.105638928E+01  0.000000000E+00  0.00000E+00  9.000E+00
#pdf   1 -1 0.93440782E-01 0.52233126E-03 0.90820647E+02 0.37082362E+00 0.18683217E+01
#rwgt            1           6   1073.5931370336630         54217137    18519876           0
</event>
<event>
      6  10013  3.31628E+03  2.22322E+00 -1.00000E+00  3.42716E-01
      -3    -1     0     0     0   501  0.000000000E+00  0.000000000E+00  1.849995252E+01  1.849995252E+01  0.000000000E+00  0.00000E+00  9.000E+00
       3    -1     0     0   511     0  0.000000000E+00  0.000000000E+00 -1.270876065E+02  1.270876065E+02  0.000000000E+00  0.00000E+00  9.000E+00
      23     2     1     2     0     0  6.512615067E-01  2.125688707E+00 -9.716092268E+01  1.339465590E+02  9.217642362E+01  0.00000E+00  9.000E+00
      13     1     3     3     0     0  1.001973728E+01 -4.176947235E+01 -6.796966649E+01  8.040504140E+01  1.056583668E-01  0.00000E+00  9.000E+00
     -13     1     3     3     0     0 -9.368475771E+00  4.389516106E+01 -2.919125619E+01  5.354151758E+01  1.056583668E-01  0.00000E+00  9.000E+00
      21     1     1     2   511   501 -6.512615067E-01 -2.125688707E+00 -1.142673129E+01  1.164100004E+01  1.685873940E-07  0.00000E+00  9.000E+00
#pdf  -3  3 0.28288416E-02 0.17772330E-01 0.92176424E+02 0.91034862E+00 0.34657834E+00
#rwgt            1           3   407.37746087636384         54217137    18519942           0
</event>
<event>
      6  10013  3.31628E+03  2.29841E+01 -1.00000E+00  1.61496E-01
      21    -1     0     0   501   511  0.000000000E+00  0.000000000E+00  1.494504402E+03  1.494504402E+03  0.000000000E+00  0.00000E+00  9.000E+00
      -4    -1     0     0     0   501  0.000000000E+00  0.000000000E+00 -2.821843227E+00  2.821843227E+00  0.000000000E+00  0.00000E+00  9.000E+00
      23     2     1     2     0     0 -4.799556808E-01 -2.297904240E+01  8.385822605E+02  8.438216421E+02  9.103015571E+01  0.00000E+00  9.000E+00
      13     1     3     3     0     0  3.050633987E+01 -2.967333706E+01  2.012062567E+02  2.056577560E+02  1.056583668E-01  0.00000E+00  9.000E+00
     -13     1     3     3     0     0 -3.098629555E+01  6.694294662E+00  6.373760039E+02  6.381638861E+02  1.056583668E-01  0.00000E+00  9.000E+00
      -4     1     1     2     0   511  4.799556808E-01  2.297904240E+01  6.531002980E+02  6.535046029E+02  0.000000000E+00  0.00000E+00  9.000E+00
#pdf   4 -4 0.12547785E+00 0.39076604E-03 0.91030156E+02 0.21935163E-01 0.17479393E+01
#rwgt            1           9   40.404591479796224         54217137    18520121           0
</event>
<event>
      6  10013  3.31628E+03  1.44569E+00 -1.00000E+00  4.57261E-01
      -2    -1     0     0     0   501  0.000000000E+00  0.000000000E+00  3.335247278E-01  3.335247278E-01  0.000000000E+00  0.00000E+00  9.000E+00
       2    -1     0     0   511     0  0.000000000E+00  0.000000000E+00 -5.101134489E+02  5.101134489E+02  0.000000000E+00  0.00000E+00  9.000E+00
      23     2     1     2     0     0 -3.964214438E-01 -1.390278264E+00 -4.774964762E+02  4.781311720E+02  2.458541855E+01  0.00000E+00  9.000E+00
      13     1     3     3     0     0  2.110284528E+00 -1.041570918E+01 -3.880478629E+02  3.881933737E+02  1.056583668E-01  0.00000E+00  9.000E+00
     -13     1     3     3     0     0 -2.506705972E+00  9.025430920E+00 -8.944861331E+01  8.993779831E+01  1.056583668E-01  0.00000E+00  9.000E+00
      21     1     1     2   511   501  3.964214438E-01  1.390278264E+00 -3.228344798E+01  3.231580166E+01  0.000000000E+00  0.00000E+00  9.000E+00
#pdf  -2  2 0.48738561E-04 0.73383058E-01 0.24585419E+02 0.29461164E+01 0.62838180E+00
#rwgt            1           4   1822.3044272076693         54217137    18520208           0
</event>
<event>
      6  10013  3.31628E+03  8.95264E+00 -1.00000E+00  2.01419E-01
      21    -1     0     0   511   501  0.000000000E+00  0.000000000E+00  1.040379944E+00  1.040379944E+00  0.000000000E+00  0.00000E+00  9.000E+00
       2    -1     0     0   501     0  0.000000000E+00  0.000000000E+00 -2.745972538E+02  2.745972538E+02  0.000000000E+00  0.00000E+00  9.000E+00
      23     2     1     2     0     0 -8.951630996E+00  1.343206623E-01 -2.011577440E+02  2.026870769E+02  2.318325760E+01  0.00000E+00  9.000E+00
      13     1     3     3     0     0 -2.755093326E+00  8.158003150E+00 -2.952539157E+01  3.075554366E+01  1.056583668E-01  0.00000E+00  9.000E+00
     -13     1     3     3     0     0 -6.196537670E+00 -8.023682488E+00 -1.716323524E+02  1.719315333E+02  1.056583668E-01  0.00000E+00  9.000E+00
       2     1     1     2   511     0  8.951630996E+00 -1.343206623E-01 -7.239912982E+01  7.295055680E+01  0.000000000E+00  0.00000E+00  9.000E+00
#pdf  -2  2 0.10974250E-03 0.28979264E-01 0.23183258E+02 0.22542490E+01 0.62660960E+00
#rwgt            1           4   1570.0927118716518         54217137    18520504           0
</event>
<event>
      6  10013  3.31628E+03  4.36974E+00 -1.00000E+00  2.54639E-01
      -2    -1     0     0     0   501  0.000000000E+00  0.000000000E+00  9.404905311E+00  9.404905311E+00  0.000000000E+00  0.00000E+00  9.000E+00
       2    -1     0     0   511     0  0.000000000E+00  0.000000000E+00 -7.306280610E+01  7.306280610E+01  0.000000000E+00  0.00000E+00  9.000E+00
      23     2     1     2     0     0  6.278118249E-01  4.324402300E+00 -4.237951384E+01  6.074527246E+01  4.329977286E+01  0.00000E+00  9.000E+00
      13     1     3     3     0     0  7.848434435E+00 -8.149307772E+00  4.136794600E+00  1.204713134E+01  1.056583668E-01  0.00000E+00  9.000E+00
     -13     1     3     3     0     0 -7.220622610E+00  1.247371007E+01 -4.651630844E+01  4.869814112E+01  1.056583668E-01  0.00000E+00  9.000E+00
      21     1     1     2   511   501 -6.278118249E-01 -4.324402300E+00 -2.127838695E+01  2.172243896E+01  2.384185791E-07  0.00000E+00  9.000E+00
#pdf  -2  2 0.14056111E-02 0.78925867E-02 0.43299773E+02 0.11164868E+01 0.75525724E+00
#rwgt            1           4   1156.0286603009652         54217137    18520535           0
</event>
<event>
      6  10013  3.31628E+03  4.14146E+01 -1.00000E+00  1.43879E-01
      21    -1     0     0   511   501  0.000000000E+00  0.000000000E+00  8.049589598E+02  8.049589598E+02  0.000000000E+00  0.00000E+00  9.000E+00
       1    -1     0     0   501     0  0.000000000E+00  0.000000000E+00 -8.305863216E+00  8.305863216E+00  0.000000000E+00  0.00000E+00  9.000E+00
      23     2     1     2     0     0 -3.591286845E+01  2.062605211E+01  3.933045291E+02  4.077956688E+02  9.946701321E+01  0.00000E+00  9.000E+00
      13     1     3     3     0     0 -5.675394480E+01 -1.639759976E+01  2.924555825E+02  2.983624816E+02  1.056583668E-01  0.00000E+00  9.000E+00
     -13     1     3     3     0     0  2.084107634E+01  3.702365187E+01  1.008489465E+02  1.094331871E+02  1.056583668E-01  0.00000E+00  9.000E+00
       1     1     1     2   511     0  3.591286845E+01 -2.062605211E+01  4.033485675E+02  4.054691543E+02  0.000000000E+00  0.00000E+00  9.000E+00
#pdf  -1  1 0.56888944E-01 0.10290668E-02 0.99467013E+02 0.19388854E+00 0.15059466E+01
#rwgt            1           5   273.61747603706874         54217137    18520676           0
</event>
<event>
      6  10013  3.31628E+03  5.85946E+01 -1.00000E+00  1.35229E-01
       2    -1     0     0   511     0  0.000000000E+00  0.000000000E+00  9.109292183E+02  9.109292183E+02  0.000000000E+00  0.00000E+00  9.000E+00
      -2    -1     0     0     0   501  0.000000000E+00  0.000000000E+00 -9.554176862E+00  9.554176862E+00  0.000000000E+00  0.00000E+00  9.000E+00
      23     2     1     2     0     0  1.913635750E+01  5.538169371E+01  3.621008064E+02  3.780352108E+02  9.143464556E+01  0.00000E+00  9.000E+00
      13     1     3     3     0     0  1.968622344E+00  4.426961987E-01  2.660555238E+02  2.660631962E+02  1.056583668E-01  0.00000E+00  9.000E+00
     -13     1     3     3     0     0  1.716773516E+01  5.493899751E+01  9.604528264E+01  1.119720146E+02  1.056583668E-01  0.00000E+00  9.000E+00
      21     1     1     2   511   501 -1.913635750E+01 -5.538169371E+01  5.392742351E+02  5.424481844E+02  7.629394531E-06  0.00000E+00  9.000E+00
#pdf   2 -2 0.47935282E-01 0.10319997E-02 0.91434646E+02 0.63441625E+00 0.14314665E+01
#rwgt            1           7   1214.5237915048069         54217137    18520730           0
</event>
<event>
      6  10013  3.31628E+03  3.48545E+00 -1.00000E+00  2.78285E-01
      -2    -1     0     0     0   501  0.000000000E+00  0.000000000E+00  6.654119675E-01  6.654119675E-01  0.000000000E+00  0.00000E+00  9.000E+00
       2    -1     0     0   511     0  0.000000000E+00  0.000000000E+00 -2.729196821E+02  2.729196821E+02  0.000000000E+00  0.00000E+00  9.000E+00
      23     2     1     2     0     0 -3.483341686E+00 -1.211042938E-01 -1.904261494E+02  1.916827762E+02  2.163376913E+01  0.00000E+00  9.000E+00
      13     1     3     3     0     0 -8.220633741E+00  5.899154229E+00 -1.595411552E+02  1.598617221E+02  1.056583668E-01  0.00000E+00  9.000E+00
     -13     1     3     3     0     0  4.737292055E+00 -6.020258523E+00 -3.088499425E+01  3.182105407E+01  1.056583668E-01  0.00000E+00  9.000E+00
      21     1     1     2   511   501  3.483341686E+00  1.211042938E-01 -8.182812070E+01  8.190231787E+01  1.348699152E-06  0.00000E+00  9.000E+00
#pdf  -2  2 0.95432961E-04 0.29018788E-01 0.21633769E+02 0.22983941E+01 0.62470486E+00
#rwgt            1           4   1363.6940569398728         54217137    18520791           0
</event>
<event>
      6  10013  3.31628E+03  1.33166E+01 -1.00000E+00  1.82346E-01
      -2    -1     0     0     0   501  0.000000000E+00  0.000000000E+00  4.018764259E+00  4.018764259E+00  0.000000000E+00  0.00000E+00  9.000E+00
       2    -1     0     0   511     0  0.000000000E+00  0.000000000E+00 -2.735224390E+02  2.735224390E+02  0.000000000E+00  0.00000E+00  9.000E+00
      23     2     1     2     0     0 -1.302634522E+01  2.765348703E+00 -1.397408045E+02  1.470968269E+02  4.396192928E+01  0.00000E+00  9.000E+00
      13     1     3     3     0     0 -7.095129587E+00 -4.964506045E+00 -1.841591952E+00  8.853801937E+00  1.056583668E-01  0.00000E+00  9.000E+00
     -13     1     3     3     0     0 -5.931215637E+00  7.729854748E+00 -1.378992125E+02  1.382430250E+02  1.056583668E-01  0.00000E+00  9.000E+00
      21     1     1     2   511   501  1.302634522E+01 -2.765348703E+00 -1.297628703E+02  1.304443763E+02  2.697398305E-06  0.00000E+00  9.000E+00
#pdf  -2  2 0.54154787E-03 0.21116889E-01 0.43961929E+02 0.15863467E+01 0.65566318E+00
#rwgt            1           4   1178.6784530199066         54217137    18520934           0
</event>
<event>
      6  10013  3.31628E+03  9.56200E+00 -1.00000E+00  1.97973E-01
      -1    -1     0     0     0   501  0.000000000E+00  0.000000000E+00  9.125701721E+02  9.125701721E+02  0.000000000E+00  0.00000E+00  9.000E+00
       1    -1     0     0   511     0  0.000000000E+00  0.000000000E+00 -3.539859413E+00  3.539859413E+00  0.000000000E+00  0.00000E+00  9.000E+00
      23     2     1     2     0     0 -8.407300080E+00  4.555132316E+00  8.923496377E+02  8.968830493E+02  8.955387426E+01  0.00000E+00  9.000E+00
      13     1     3     3     0     0  3.338500332E+01 -8.559078848E+00  1.852962128E+02  1.884741731E+02  1.056583668E-01  0.00000E+00  9.000E+00
     -13     1     3     3     0     0 -4.179230340E+01  1.311421116E+01  7.070534249E+02  7.084088763E+02  1.056583668E-01  0.00000E+00  9.000E+00
      21     1     1     2   511   501  8.407300080E+00 -4.555132316E+00  1.668067503E+01  1.922698220E+01  4.129530925E-07  0.00000E+00  9.000E+00
#pdf  -1  1 0.13685538E+00 0.34675297E-03 0.89553874E+02 0.75478712E-01 0.21967387E+01
#rwgt            1           5   229.29114175226400         54217137    18521038           0
</event>
<event>
      6  10013  3.31628E+03  1.51403E+00 -1.00000E+00  4.30561E-01
       2    -1     0     0   501     0  0.000000000E+00  0.000000000E+00  2.236360232E+03  2.236360232E+03  0.000000000E+00  0.00000E+00  9.000E+00
      -2    -1     0     0     0   511  0.000000000E+00  0.000000000E+00 -7.205697637E-02  7.205697637E-02  0.000000000E+00  0.00000E+00  9.000E+00
      23     2     1     2     0     0  6.982495500E-01 -1.343400316E+00  2.122442964E+03  2.122577011E+03  2.380628943E+01  0.00000E+00  9.000E+00
      13     1     3     3     0     0 -1.102335011E+01 -1.942406156E+00  7.456298826E+02  7.457138997E+02  1.056583668E-01  0.00000E+00  9.000E+00
     -13     1     3     3     0     0  1.172159966E+01  5.990058401E-01  1.376813081E+03  1.376863111E+03  1.056583668E-01  0.00000E+00  9.000E+00
      21     1     1     2   501   511 -6.982495500E-01  1.343400316E+00  1.138452113E+02  1.138552783E+02  1.907348633E-06  0.00000E+00  9.000E+00
#pdf   2 -2 0.32588162E+00 0.10290509E-04 0.23806289E+02 0.36266947E+00 0.46030154E+01
#rwgt            1           7   9447.1702670663017         54217137    18521119           0
</event>
<event>
      6  10013  3.31628E+03  1.21545E+01 -1.00000E+00  1.86393E-01
       2    -1     0     0   501     0  0.000000000E+00  0.000000000E+00  1.166923445E+02  1.166923445E+02  0.000000000E+00  0.00000E+00  9.000E+00
      21    -1     0     0   511   501  0.000000000E+00  0.000000000E+00 -3.325466169E+00  3.325466169E+00  0.000000000E+00  0.00000E+00  9.000E+00
      23     2     1     2     0     0  1.879675875E-01  1.215303676E+01  6.099138532E+01  6.625049808E+01  2.283523109E+01  0.00000E+00  9.000E+00
      13     1     3     3     0     0  9.197776077E+00  1.174609749E+01  2.470847855E+01  2.886329793E+01  1.056583668E-01  0.00000E+00  9.000E+00
     -13     1     3     3     0     0 -9.009808489E+00  4.069392624E-01  3.628290676E+01  3.738720016E+01  1.056583668E-01  0.00000E+00  9.000E+00
       2     1     1     2   511     0 -1.879675875E-01 -1.215303676E+01  5.237549298E+01  5.376731255E+01  0.000000000E+00  0.00000E+00  9.000E+00
#pdf   2 -2 0.86401416E-02 0.35711102E-03 0.22835231E+02 0.69566273E+00 0.15479527E+01
#rwgt            1           7   889.18058784889422         54217137    18521234           0
</event>
<event>
      6  10013  3.31628E+03  2.31309E+00 -1.00000E+00  3.35774E-01
      -1    -1     0     0     0   511  0.000000000E+00  0.000000000E+00  9.082899351E-01  9.082899351E-01  0.000000000E+00  0.00000E+00  9.000E+00
       1    -1     0     0   501     0  0.000000000E+00  0.000000000E+00 -2.829416632E+03  2.829416632E+03  0.000000000E+00  0.00000E+00  9.000E+00
      23     2     1     2     0     0 -1.389719030E+00  1.849073142E+00 -2.819358006E+03  2.820886752E+03  9.282863002E+01  0.00000E+00  9.000E+00
      13     1     3     3     0     0  1.580445452E+01 -4.152857819E+01 -1.649882407E+03  1.650480649E+03  1.056583668E-01  0.00000E+00  9.000E+00
     -13     1     3     3     0     0 -1.719417355E+01  4.337765133E+01 -1.169475598E+03  1.170406103E+03  1.056583668E-01  0.00000E+00  9.000E+00
      21     1     1     2   501   511  1.389719030E+00 -1.849073142E+00 -9.150336036E+00  9.438169316E+00  1.192092896E-07  0.00000E+00  9.000E+00
#pdf  -1  1 0.11755940E-03 0.43373035E+00 0.92828630E+02 0.32354948E+01 0.50900610E-01
#rwgt            1           5   1360.2855231018673         54217137    18521297           0
</event>
<event>
      6  10013  3.31628E+03  1.42228E+00 -1.00000E+00  4.63237E-01
      21    -1     0     0   501   511  0.000000000E+00  0.000000000E+00  1.266194945E+02  1.266194945E+02  0.000000000E+00  0.00000E+00  9.000E+00
      -1    -1     0     0     0   501  0.000000000E+00  0.000000000E+00 -1.552237410E+00  1.552237410E+00  0.000000000E+00  0.00000E+00  9.000E+00
      23     2     1     2     0     0 -1.366590070E+00 -3.940849470E-01  8.330021970E+01  8.638048541E+01  2.281751053E+01  0.00000E+00  9.000E+00
      13     1     3     3     0     0 -4.264228359E+00  3.303243854E+00  8.094494037E+01  8.112453143E+01  1.056583668E-01  0.00000E+00  9.000E+00
     -13     1     3     3     0     0  2.897638289E+00 -3.697328801E+00  2.355279328E+00  5.255953988E+00  1.056583668E-01  0.00000E+00  9.000E+00
      -1     1     1     2     0   511  1.366590070E+00  3.940849470E-01  4.176703743E+01  4.179124654E+01  0.000000000E+00  0.00000E+00  9.000E+00
#pdf   1 -1 0.13027079E-01 0.23648455E-03 0.22817511E+02 0.56755389E+00 0.17694626E+01
#rwgt            1           6   179.58229824588412         54217137    18521434           0
</event>
<event>
      6  10013  3.31628E+03  2.42802E+01 -1.00000E+00  1.59669E-01
       4    -1     0     0   501     0  0.000000000E+00  0.000000000E+00  1.428184588E+02  1.428184588E+02  0.000000000E+00  0.00000E+00  9.000E+00
      21    -1     0     0   511   501  0.000000000E+00  0.000000000E+00 -4.864835267E+01  4.864835267E+01  0.000000000E+00  0.00000E+00  9.000E+00
      23     2     1     2     0     0 -6.912694436E+00 -2.327537433E+01  1.227477075E+02  1.539673755E+02  8.971858577E+01  0.00000E+00  9.000E+00
      13     1     3     3     0     0 -8.278546735E-01 -4.931803398E+00  1.323099443E+02  1.324044582E+02  1.056583668E-01  0.00000E+00  9.000E+00
     -13     1     3     3     0     0 -6.084839762E+00 -1.834357094E+01 -9.562236751E+00  2.156291736E+01  1.056583668E-01  0.00000E+00  9.000E+00
       4     1     1     2   511     0  6.912694436E+00  2.327537433E+01 -2.857760138E+01  3.749943594E+01  0.000000000E+00  0.00000E+00  9.000E+00
#pdf   4 -4 0.20546665E-01 0.23181247E-02 0.89718586E+02 0.20459479E+00 0.79548710E+00
#rwgt            1           9   209.08318198168578         54217137    18521561           0
</event>
<event>
      6  10013  3.31628E+03  2.73177E+01 -1.00000E+00  1.55883E-01
       3    -1     0     0   501     0  0.000000000E+00  0.000000000E+00  1.353643413E+02  1.353643413E+02  0.000000000E+00  0.00000E+00  9.000E+00
      -3    -1     0     0     0   511  0.000000000E+00  0.000000000E+00 -3.207053094E+01  3.207053094E+01  0.000000000E+00  0.00000E+00  9.000E+00
      23     2     1     2     0     0 -2.571472605E+01 -9.220052398E+00  1.029676304E+02  1.401152292E+02  9.101476822E+01  0.00000E+00  9.000E+00
      13     1     3     3     0     0  1.475040704E+01  2.135050415E+01  8.062226799E+01  8.469580742E+01  1.056583668E-01  0.00000E+00  9.000E+00
     -13     1     3     3     0     0 -4.046513309E+01 -3.057055655E+01  2.234536245E+01  5.541942178E+01  1.056583668E-01  0.00000E+00  9.000E+00
      21     1     1     2   501   511  2.571472605E+01  9.220052398E+00  3.261799180E-01  2.731964303E+01  1.643355563E-07  0.00000E+00  9.000E+00
#pdf   3 -3 0.17909370E-01 0.27368861E-02 0.91014768E+02 0.34461478E+00 0.92227000E+00
#rwgt            1           8   410.37704625689599         54217137    18521628           0
</event>
<event>
      6  10013  3.31628E+03  5.13630E+00 -1.00000E+00  2.36407E-01
      -1    -1     0     0     0   511  0.000000000E+00  0.000000000E+00  3.676868906E+02  3.676868906E+02  0.000000000E+00  0.00000E+00  9.000E+00
       1    -1     0     0   501     0  0.000000000E+00  0.000000000E+00 -8.656761970E-01  8.656761970E-01  0.000000000E+00  0.00000E+00  9.000E+00
      23     2     1     2     0     0  3.230542307E+00  3.993137843E+00  1.543493450E+02  1.560186240E+02  2.217451644E+01  0.00000E+00  9.000E+00
      13     1     3     3     0     0 -4.734825402E+00 -1.920335814E+00  9.147750964E+00  1.047849095E+01  1.056583668E-01  0.00000E+00  9.000E+00
     -13     1     3     3     0     0  7.965367709E+00  5.913473657E+00  1.452015940E+02  1.455401330E+02  1.056583668E-01  0.00000E+00  9.000E+00
      21     1     1     2   501   511 -3.230542307E+00 -3.993137843E+00  2.124718695E+02  2.125339429E+02  2.697398305E-06  0.00000E+00  9.000E+00
#pdf  -1  1 0.23258665E-01 0.12509410E-03 0.22174516E+02 0.32676770E+00 0.21491730E+01
#rwgt            1           5   136.97770610749441         54217137    18521772           0
</event>
<event>
      6  10013  3.31628E+03  8.23393E+00 -1.00000E+00  2.05982E-01
       2    -1     0     0   501     0  0.000000000E+00  0.000000000E+00  6.978838708E+02  6.978838708E+02  0.000000000E+00  0.00000E+00  9.000E+00
      21    -1     0     0   511   501  0.000000000E+00  0.000000000E+00 -5.595402804E+00  5.595402804E+00  0.000000000E+00  0.00000E+00  9.000E+00
      23     2     1     2     0     0  7.049453758E+00  4.254730749E+00  6.897867792E+02  6.948736953E+02  8.352157827E+01  0.00000E+00  9.000E+00
      13     1     3     3     0     0  3.982841943E+01  3.507942501E+00  5.429801906E+02  5.444502798E+02  1.056583668E-01  0.00000E+00  9.000E+00
     -13     1     3     3     0     0 -3.277896567E+01  7.467882484E-01  1.468065887E+02  1.504234155E+02  1.056583668E-01  0.00000E+00  9.000E+00
       2     1     1     2   511     0 -7.049453758E+00 -4.254730749E+00  2.501688778E+00  8.605578352E+00  0.000000000E+00  0.00000E+00  9.000E+00
#pdf   2 -2 0.10599850E+00 0.38941348E-03 0.83521578E+02 0.59915249E+00 0.20462925E+01
#rwgt            1           7   1200.0747003534373         54217137    18521811           0
</event>
<event>
      6  10013  3.31628E+03  8.39420E+00 -1.00000E+00  2.04912E-01
      -1    -1     0     0     0   511  0.000000000E+00  0.000000000E+00  1.282622999E+00  1.282622999E+00  0.000000000E+00  0.00000E+00  9.000E+00
       1    -1     0     0   501     0  0.000000000E+00  0.000000000E+00 -2.333664509E+03  2.333664509E+03  0.000000000E+00  0.00000E+00  9.000E+00
      23     2     1     2     0     0 -6.648730920E+00 -5.124151864E+00 -2.187123942E+03  2.189446848E+03  1.004783404E+02  0.00000E+00  9.000E+00
      13     1     3     3     0     0 -9.090326118E-01  9.487106558E+00 -2.134737834E+03  2.134759112E+03  1.056583668E-01  0.00000E+00  9.000E+00
     -13     1     3     3     0     0 -5.739698308E+00 -1.461125842E+01 -5.238610789E+01  5.468773603E+01  1.056583668E-01  0.00000E+00  9.000E+00
      21     1     1     2   501   511  6.648730920E+00  5.124151864E+00 -1.452579439E+02  1.455002846E+02  2.697398305E-06  0.00000E+00  9.000E+00
#pdf  -1  1 0.17806472E-03 0.33549058E+00 0.10047834E+03 0.28379299E+01 0.10317932E+00
#rwgt            1           5   1081.4124264047105         54217137    18521891           0
</event>
<event>
      6  10013  3.31628E+03  1.43816E+01 -1.00000E+00  1.79075E-01
      21    -1     0     0   511   501  0.000000000E+00  0.000000000E+00  1.083759533E+00  1.083759533E+00  0.000000000E+00  0.00000E+00  9.000E+00
       2    -1     0     0   501     0  0.000000000E+00  0.000000000E+00 -1.203928045E+03  1.203928045E+03  0.000000000E+00  0.00000E+00  9.000E+00
      23     2     1     2     0     0 -1.207860617E+01  7.806171550E+00 -1.143398998E+03  1.143851595E+03  2.878147702E+01  0.00000E+00  9.000E+00
      13     1     3     3     0     0 -9.105097997E+00 -5.404609410E+00 -9.090531984E+02  9.091148669E+02  1.056583668E-01  0.00000E+00  9.000E+00
     -13     1     3     3     0     0 -2.973508173E+00  1.321078096E+01 -2.343457999E+02  2.347367283E+02  1.056583668E-01  0.00000E+00  9.000E+00
       2     1     1     2   511     0  1.207860617E+01 -7.806171550E+00 -5.944528670E+01  6.116020889E+01  0.000000000E+00  0.00000E+00  9.000E+00
#pdf  -2  2 0.31143586E-04 0.15738771E+00 0.28781477E+02 0.35675686E+01 0.58120805E+00
#rwgt            1           4   2926.3473498618969         54217137    18521990           0
</event>
<event>
      6  10013  3.31628E+03  1.33154E+01 -1.00000E+00  1.82350E-01
      -3    -1     0     0     0   501  0.000000000E+00  0.000000000E+00  4.472718808E+02  4.472718808E+02  0.000000000E+00  0.00000E+00  9.000E+00
       3    -1     0     0   511     0  0.000000000E+00  0.000000000E+00 -6.489951118E+00  6.489951118E+00  0.000000000E+00  0.00000E+00  9.000E+00
      23     2     1     2     0     0 -1.242255542E+01 -4.793869455E+00  4.116354896E+02  4.217178616E+02  9.069110975E+01  0.00000E+00  9.000E+00
      13     1     3     3     0     0  5.289865082E-01 -3.823607173E+01  3.342036444E+02  3.363842506E+02  1.056583668E-01  0.00000E+00  9.000E+00
     -13     1     3     3     0     0 -1.295154192E+01  3.344220228E+01  7.743184527E+01  8.533361094E+01  1.056583668E-01  0.00000E+00  9.000E+00
      21     1     1     2   511   501  1.242255542E+01  4.793869455E+00  2.914644009E+01  3.204397037E+01  0.000000000E+00  0.00000E+00  9.000E+00
#pdf  -3  3 0.63424142E-01 0.76734051E-03 0.90691110E+02 0.11610777E+00 0.15635707E+01
#rwgt            1           3   213.41854114346191         54217137    18522021           0
</event>
<event>
      6  10013  3.31628E+03  3.74133E+00 -1.00000E+00  2.70390E-01
       2    -1     0     0   501     0  0.000000000E+00  0.000000000E+00  4.659271552E+02  4.659271552E+02  0.000000000E+00  0.00000E+00  9.000E+00
      21    -1     0     0   511   501  0.000000000E+00  0.000000000E+00 -2.098234854E+01  2.098234854E+01  0.000000000E+00  0.00000E+00  9.000E+00
      23     2     1     2     0     0  2.713490246E+00  2.575757572E+00  4.611595470E+02  4.702687297E+02  9.203560597E+01  0.00000E+00  9.000E+00
      13     1     3     3     0     0 -2.727871812E+01  1.734370232E-01  4.100778998E+02  4.109842498E+02  1.056583668E-01  0.00000E+00  9.000E+00
     -13     1     3     3     0     0  2.999220836E+01  2.402320549E+00  5.108164722E+01  5.928447987E+01  1.056583668E-01  0.00000E+00  9.000E+00
       2     1     1     2   511     0 -2.713490246E+00 -2.575757572E+00 -1.621474035E+01  1.664077405E+01  0.000000000E+00  0.00000E+00  9.000E+00
#pdf   2 -2 0.71589203E-01 0.70012812E-03 0.92035606E+02 0.62091631E+00 0.16682643E+01
#rwgt            1           7   1101.5490846771468         54217137    18522109           0
</event>
<event>
      6  10013  3.31628E+03  1.08220E+01 -1.00000E+00  1.91817E-01
      -2    -1     0     0     0   501  0.000000000E+00  0.000000000E+00  2.302820582E-01  2.302820582E-01  0.000000000E+00  0.00000E+00  9.000E+00
       2    -1     0     0   511     0  0.000000000E+00  0.000000000E+00 -1.729071201E+03  1.729071201E+03  0.000000000E+00  0.00000E+00  9.000E+00
      23     2     1     2     0     0  1.055505715E+01 -2.389027277E+00 -1.255099508E+03  1.255436480E+03  2.699747486E+01  0.00000E+00  9.000E+00
      13     1     3     3     0     0  4.077466655E+00 -6.204037229E-01 -2.655263217E+01  2.687124995E+01  1.056583668E-01  0.00000E+00  9.000E+00
     -13     1     3     3     0     0  6.477590496E+00 -1.768623554E+00 -1.228546875E+03  1.228565230E+03  1.056583668E-01  0.00000E+00  9.000E+00
      21     1     1     2   511   501 -1.055505715E+01  2.389027277E+00 -4.737414116E+02  4.738650038E+02  5.394796609E-06  0.00000E+00  9.000E+00
#pdf  -2  2 0.24059881E-04 0.17925287E+00 0.26997475E+02 0.37673289E+01 0.56096788E+00
#rwgt            1           4   2361.9225001924046         54217137    18522239           0
</event>
<event>
      6  10013  3.31628E+03  2.15641E+02 -1.00000E+00  1.10452E-01
      -1    -1     0     0     0   501  0.000000000E+00  0.000000000E+00  5.662306103E+02  5.662306103E+02  0.000000000E+00  0.00000E+00  9.000E+00
      21    -1     0     0   501   511  0.000000000E+00  0.000000000E+00 -8.760066844E+01  8.760066844E+01  0.000000000E+00  0.00000E+00  9.000E+00
      23     2     1     2     0     0 -1.740523015E+02  1.273061491E+02  2.275201900E+02  3.228370692E+02  7.718339966E+01  0.00000E+00  9.000E+00
      13     1     3     3     0     0 -7.955258337E+01  4.581766907E+01  1.502228096E+02  1.760533328E+02  1.056583668E-01  0.00000E+00  9.000E+00
     -13     1     3     3     0     0 -9.449971808E+01  8.148848002E+01  7.729738045E+01  1.467837364E+02  1.056583668E-01  0.00000E+00  9.000E+00
      -1     1     1     2     0   511  1.740523015E+02 -1.273061491E+02  2.511097519E+02  3.309942095E+02  0.000000000E+00  0.00000E+00  9.000E+00
#pdf  -1  1 0.14266518E-01 0.24708314E-02 0.77183400E+02 0.44885510E+00 0.10588570E+01
#rwgt            1           5   624.89971290514063         54217137    18522277           0
</event>
<event>
      6  10013  3.31628E+03  3.37510E+00 -1.00000E+00  2.82034E-01
       1    -1     0     0   511     0  0.000000000E+00  0.000000000E+00  1.170940435E+01  1.170940435E+01  0.000000000E+00  0.00000E+00  9.000E+00
      -1    -1     0     0     0   501  0.000000000E+00  0.000000000E+00 -2.194771810E+02  2.194771810E+02  0.000000000E+00  0.00000E+00  9.000E+00
      23     2     1     2     0     0  3.373158145E+00  1.143311880E-01 -2.088187658E+02  2.276516390E+02  9.060132744E+01  0.00000E+00  9.000E+00
      13     1     3     3     0     0 -1.005161127E+01 -1.215755152E+01 -2.088678412E+02  2.094627107E+02  1.056583668E-01  0.00000E+00  9.000E+00
     -13     1     3     3     0     0  1.342476941E+01  1.227188271E+01  4.907541374E-02  1.818892825E+01  1.056583668E-01  0.00000E+00  9.000E+00
      21     1     1     2   511   501 -3.373158145E+00 -1.143311880E-01  1.050989127E+00  3.534946341E+00  8.024520885E-08  0.00000E+00  9.000E+00
#pdf   1 -1 0.14476784E-02 0.33551375E-01 0.90601327E+02 0.13107478E+01 0.27999268E+00
#rwgt            1           6   379.41047692145560         54217137    18522306           0
</event>
<event>
      6  10013  3.31628E+03  8.55657E+00 -1.00000E+00  2.03860E-01
       1    -1     0     0   501     0  0.000000000E+00  0.000000000E+00  3.709094652E+02  3.709094652E+02  0.000000000E+00  0.00000E+00  9.000E+00
      -1    -1     0     0     0   511  0.000000000E+00  0.000000000E+00 -1.029721905E+01  1.029721905E+01  0.000000000E+00  0.00000E+00  9.000E+00
      23     2     1     2     0     0 -8.357853752E+00  1.833327282E+00  3.612555710E+02  3.726259689E+02  9.094674438E+01  0.00000E+00  9.000E+00
      13     1     3     3     0     0 -9.966245510E+00 -7.043770183E-02 -1.309152790E+00  1.005266411E+01  1.056583668E-01  0.00000E+00  9.000E+00
     -13     1     3     3     0     0  1.608391758E+00  1.903764984E+00  3.625647238E+02  3.625733048E+02  1.056583668E-01  0.00000E+00  9.000E+00
      21     1     1     2   501   511  8.357853752E+00 -1.833327282E+00 -6.433248957E-01  8.580715307E+00  1.391883321E-07  0.00000E+00  9.000E+00
#pdf   1 -1 0.56204224E-01 0.87080047E-03 0.90946744E+02 0.43193571E+00 0.15366596E+01
#rwgt            1           6   816.26080566936810         54217137    18522443           0
</event>
<event>
      6  10013  3.31628E+03  3.11929E+01 -1.00000E+00  1.51838E-01
      21    -1     0     0   501   511  0.000000000E+00  0.000000000E+00  4.281992223E+01  4.281992223E+01  0.000000000E+00  0.00000E+00  9.000E+00
      -1    -1     0     0     0   501  0.000000000E+00  0.000000000E+00 -2.343845954E+02  2.343845954E+02  0.000000000E+00  0.00000E+00  9.000E+00
      23     2     1     2     0     0 -1.130775782E+01  2.907116783E+01 -2.188485071E+02  2.357629229E+02  8.195418580E+01  0.00000E+00  9.000E+00
      13     1     3     3     0     0 -1.410457062E+01 -2.500473368E+01 -1.163627442E+02  1.198518879E+02  1.056583668E-01  0.00000E+00  9.000E+00
     -13     1     3     3     0     0  2.796812801E+00  5.407590151E+01 -1.024857628E+02  1.159110350E+02  1.056583668E-01  0.00000E+00  9.000E+00
      -1     1     1     2     0   511  1.130775782E+01 -2.907116783E+01  2.728383388E+01  4.144159477E+01  0.000000000E+00  0.00000E+00  9.000E+00
#pdf   1 -1 0.12160071E-02 0.32682815E-01 0.81954186E+02 0.13749643E+01 0.28418527E+00
#rwgt            1           6   412.60026925267539         54217137    18522503           0
</event>
<event>
      6  10013  3.31628E+03  1.64145E+01 -1.00000E+00  1.73729E-01
      21    -1     0     0   511   501  0.000000000E+00  0.000000000E+00  5.792267938E+01  5.792267938E+01  0.000000000E+00  0.00000E+00  9.000E+00
       5    -1     0     0   501     0  0.000000000E+00  0.000000000E+00 -1.885595728E+02  1.885595728E+02  0.000000000E+00  0.00000E+00  9.000E+00
      23     2     1     2     0     0 -1.474514656E+01  7.212343922E+00 -1.763867787E+02  1.978768075E+02  8.816744284E+01  0.00000E+00  9.000E+00
      13     1     3     3     0     0 -4.073114985E+01 -7.330254662E+00 -1.569534114E+02  1.623180326E+02  1.056583668E-01  0.00000E+00  9.000E+00
     -13     1     3     3     0     0  2.598600329E+01  1.454259858E+01 -1.943336734E+01  3.555877487E+01  1.056583668E-01  0.00000E+00  9.000E+00
       5     1     1     2   511     0  1.474514656E+01 -7.212343922E+00  4.574988529E+01  4.860544472E+01  0.000000000E+00  0.00000E+00  9.000E+00
#pdf  -5  5 0.16251543E-02 0.28303177E-01 0.88167443E+02 0.66083669E+00 0.90383917E-01
#rwgt            1           1   89.107169746233652         54217137    18522536           0
</event>
<event>
      6  10013  3.31628E+03  8.42620E+00 -1.00000E+00  2.04702E-01
       5    -1     0     0   501     0  0.000000000E+00  0.000000000E+00  7.619797925E+01  7.619797925E+01  0.000000000E+00  0.00000E+00  9.000E+00
      21    -1     0     0   511   501  0.000000000E+00  0.000000000E+00 -3.977581292E+00  3.977581292E+00  0.000000000E+00  0.00000E+00  9.000E+00
      23     2     1     2     0     0 -7.199475930E+00 -4.378171273E+00  5.943089926E+01  6.485981328E+01  2.457158428E+01  0.00000E+00  9.000E+00
      13     1     3     3     0     0  2.057938999E-01 -1.378465815E+01  2.759601617E+01  3.084818347E+01  1.056583668E-01  0.00000E+00  9.000E+00
     -13     1     3     3     0     0 -7.405269830E+00  9.406486881E+00  3.183488310E+01  3.401162981E+01  1.056583668E-01  0.00000E+00  9.000E+00
       5     1     1     2   511     0  7.199475930E+00  4.378171273E+00  1.278949869E+01  1.531574726E+01  0.000000000E+00  0.00000E+00  9.000E+00
#pdf   5 -5 0.90438357E-02 0.39502715E-03 0.24571584E+02 0.15426121E+00 0.74422232E+00
#rwgt            1          10   36.823116631681486         54217137    18522695           0
</event>
<event>
      6  10013  3.31628E+03  2.32950E+00 -1.00000E+00  3.34567E-01
      -2    -1     0     0     0   511  0.000000000E+00  0.000000000E+00  8.531219075E+01  8.531219075E+01  0.000000000E+00  0.00000E+00  9.000E+00
       2    -1     0     0   501     0  0.000000000E+00  0.000000000E+00 -2.597499152E+01  2.597499152E+01  0.000000000E+00  0.00000E+00  9.000E+00
      23     2     1     2     0     0  2.075855051E+00  1.057066827E+00  5.487499351E+01  1.062535112E+02  9.095667743E+01  0.00000E+00  9.000E+00
      13     1     3     3     0     0  2.862649450E+01  2.613756295E+01 -1.826266611E+00  3.880714880E+01  1.056583668E-01  0.00000E+00  9.000E+00
     -13     1     3     3     0     0 -2.655063944E+01 -2.508049613E+01  5.670126012E+01  6.744636242E+01  1.056583668E-01  0.00000E+00  9.000E+00
      21     1     1     2   501   511 -2.075855051E+00 -1.057066827E+00  4.462205713E+00  5.033671056E+00  0.000000000E+00  0.00000E+00  9.000E+00
#pdf  -2  2 0.12390437E-01 0.39508981E-02 0.90956677E+02 0.46584027E+00 0.96818316E+00
#rwgt            1           4   494.89249921896817         54217137    18522932           0
</event>
<event>
      6  10013  3.31628E+03  1.16331E+01 -1.00000E+00  1.88403E-01
       4    -1     0     0   501     0  0.000000000E+00  0.000000000E+00  9.813841087E+01  9.813841087E+01  0.000000000E+00  0.00000E+00  9.000E+00
      -4    -1     0     0     0   511  0.000000000E+00  0.000000000E+00 -3.852528797E+00  3.852528797E+00  0.000000000E+00  0.00000E+00  9.000E+00
      23     2     1     2     0     0 -8.381789223E+00  8.066943739E+00  6.683693613E+01  7.217861663E+01  2.464237599E+01  0.00000E+00  9.000E+00
      13     1     3     3     0     0  1.644972046E+00 -7.077488415E+00  9.061738447E+00  1.161563785E+01  1.056583668E-01  0.00000E+00  9.000E+00
     -13     1     3     3     0     0 -1.002676127E+01  1.514443215E+01  5.777519769E+01  6.056297878E+01  1.056583668E-01  0.00000E+00  9.000E+00
      21     1     1     2   501   511  8.381789223E+00 -8.066943739E+00  2.744894594E+01  2.981232304E+01  4.768371582E-07  0.00000E+00  9.000E+00
#pdf   4 -4 0.96701224E-02 0.37157500E-03 0.24642376E+02 0.28924240E+00 0.12162993E+01
#rwgt            1           9   513.43789693569784         54217137    18523209           0
</event>
<event>
      6  10013  3.31628E+03  3.06239E+00 -1.00000E+00  2.94045E-01
      -3    -1     0     0     0   501  0.000000000E+00  0.000000000E+00  1.163359272E+01  1.163359272E+01  0.000000000E+00  0.00000E+00  9.000E+00
       3    -1     0     0   511     0  0.000000000E+00  0.000000000E+00 -2.827145814E+01  2.827145814E+01  0.000000000E+00  0.00000E+00  9.000E+00
      23     2     1     2     0     0 -1.445216904E+00 -2.699926173E+00 -2.745776893E+00  2.567942691E+01  2.534788793E+01  0.00000E+00  9.000E+00
      13     1     3     3     0     0  2.330040260E+00  5.957464661E+00 -1.126806089E+01  1.295765537E+01  1.056583668E-01  0.00000E+00  9.000E+00
     -13     1     3     3     0     0 -3.775257164E+00 -8.657390834E+00  8.522284002E+00  1.272177154E+01  1.056583668E-01  0.00000E+00  9.000E+00
      21     1     1     2   511   501  1.445216904E+00  2.699926173E+00 -1.389208853E+01  1.422562395E+01  1.685873940E-07  0.00000E+00  9.000E+00
#pdf  -3  3 0.17513914E-02 0.21707691E-02 0.25347888E+02 0.88997932E+00 0.82179274E+00
#rwgt            1           3   150.76770571934887         54217137    18523254           0
</event>
<event>
      6  10013  3.31628E+03  1.12209E+01 -1.00000E+00  1.90091E-01
      -2    -1     0     0     0   501  0.000000000E+00  0.000000000E+00  4.070171037E+00  4.070171037E+00  0.000000000E+00  0.00000E+00  9.000E+00
       2    -1     0     0   511     0  0.000000000E+00  0.000000000E+00 -6.464877271E+02  6.464877271E+02  0.000000000E+00  0.00000E+00  9.000E+00
      23     2     1     2     0     0  1.102897084E+01 -2.066727352E+00 -5.513162123E+02  5.587681144E+02  9.025702292E+01  0.00000E+00  9.000E+00
      13     1     3     3     0     0  1.224109060E+01 -4.449192239E+01 -3.498191816E+02  3.528496088E+02  1.056583668E-01  0.00000E+00  9.000E+00
     -13     1     3     3     0     0 -1.212119764E+00  4.242519503E+01 -2.014970306E+02  2.059185055E+02  1.056583668E-01  0.00000E+00  9.000E+00
      21     1     1     2   511   501 -1.102897084E+01  2.066727352E+00 -9.110134379E+01  9.178978375E+01  1.348699152E-06  0.00000E+00  9.000E+00
#pdf  -2  2 0.56884407E-03 0.84738753E-01 0.90257023E+02 0.18006263E+01 0.61319124E+00
#rwgt            1           4   1328.2046332829032         54217137    18523348           0
</event>
<event>
      6  10013  3.31628E+03  1.08591E+01 -1.00000E+00  1.91652E-01
      21    -1     0     0   511   501  0.000000000E+00  0.000000000E+00  1.526639420E+01  1.526639420E+01  0.000000000E+00  0.00000E+00  9.000E+00
       3    -1     0     0   501     0  0.000000000E+00  0.000000000E+00 -2.132317596E+02  2.132317596E+02  0.000000000E+00  0.00000E+00  9.000E+00
      23     2     1     2     0     0  4.904631205E+00  9.688407598E+00 -1.921872607E+02  2.161974569E+02  9.842497935E+01  0.00000E+00  9.000E+00
      13     1     3     3     0     0 -4.388672902E+01 -1.147132417E+01 -7.795706459E+01  9.019396512E+01  1.056583668E-01  0.00000E+00  9.000E+00
     -13     1     3     3     0     0  4.879136022E+01  2.115973176E+01 -1.142301961E+02  1.260034918E+02  1.056583668E-01  0.00000E+00  9.000E+00
       3     1     1     2   511     0 -4.904631205E+00 -9.688407598E+00 -5.778104658E+00  1.230069683E+01  0.000000000E+00  0.00000E+00  9.000E+00
#pdf  -3  3 0.18357989E-02 0.31224743E-01 0.98424979E+02 0.11087089E+01 0.23064984E+00
#rwgt            1           3   401.12610885167499         54217137    18523415           0
</event>
<event>
      6  10013  3.31628E+03  1.08249E+02 -1.00000E+00  1.22277E-01
       2    -1     0     0   501     0  0.000000000E+00  0.000000000E+00  2.225068511E+02  2.225068511E+02  0.000000000E+00  0.00000E+00  9.000E+00
      21    -1     0     0   511   501  0.000000000E+00  0.000000000E+00 -7.143411440E+01  7.143411440E+01  0.000000000E+00  0.00000E+00  9.000E+00
      23     2     1     2     0     0 -8.614258329E+00 -1.079057933E+02  1.053836472E+02  1.764447588E+02  9.115467147E+01  0.00000E+00  9.000E+00
      13     1     3     3     0     0  2.577581704E+01 -8.659297971E+01  3.835553545E+01  9.815240773E+01  1.056583668E-01  0.00000E+00  9.000E+00
     -13     1     3     3     0     0 -3.439007536E+01 -2.131281362E+01  6.702811176E+01  7.829235108E+01  1.056583668E-01  0.00000E+00  9.000E+00
       2     1     1     2   511     0  8.614258329E+00  1.079057933E+02  4.568908945E+01  1.174962067E+02  0.000000000E+00  0.00000E+00  9.000E+00
#pdf   2 -2 0.13964068E-01 0.35209446E-02 0.91154671E+02 0.71616723E+00 0.85766196E+00
#rwgt            1           7   519.29469634024781         54217137    18523482           0
</event>
<event>
      6  10013  3.31628E+03  1.03118E+01 -1.00000E+00  1.94171E-01
      21    -1     0     0   511   501  0.000000000E+00  0.000000000E+00  4.230724490E+01  4.230724490E+01  0.000000000E+00  0.00000E+00  9.000E+00
       1    -1     0     0   501     0  0.000000000E+00  0.000000000E+00 -1.025683632E+02  1.025683632E+02  0.000000000E+00  0.00000E+00  9.000E+00
      23     2     1     2     0     0  6.306407834E+00 -8.158610652E+00 -8.022331635E+01  1.224073403E+02  9.187732449E+01  0.00000E+00  9.000E+00
      13     1     3     3     0     0 -3.681345375E+01 -1.360765300E+01 -6.579530574E+01  7.661221847E+01  1.056583668E-01  0.00000E+00  9.000E+00
     -13     1     3     3     0     0  4.311986159E+01  5.449042347E+00 -1.442801061E+01  4.579512179E+01  1.056583668E-01  0.00000E+00  9.000E+00
       1     1     1     2   511     0 -6.306407834E+00  8.158610652E+00  1.996219806E+01  2.246826782E+01  0.000000000E+00  0.00000E+00  9.000E+00
#pdf  -1  1 0.32246784E-02 0.15489720E-01 0.91877324E+02 0.90435658E+00 0.59485445E+00
#rwgt            1           5   843.65460513415928         54217137    18523522           0
</event>
<event>
      6  10013  3.31628E+03  5.55994E+00 -1.00000E+00  2.30653E-01
      -1    -1     0     0     0   501  0.000000000E+00  0.000000000E+00  3.042122185E+01  3.042122185E+01  0.000000000E+00  0.00000E+00  9.000E+00
      21    -1     0     0   501   511  0.000000000E+00  0.000000000E+00 -5.665126704E+02  5.665126704E+02  0.000000000E+00  0.00000E+00  9.000E+00
      23     2     1     2     0     0  4.762356824E+00 -2.869311035E+00 -3.702565816E+01  9.783713196E+01  9.038966777E+01  0.00000E+00  9.000E+00
      13     1     3     3     0     0  4.163261859E+01  2.094502821E+01 -1.723590159E+01  4.968960258E+01  1.056583668E-01  0.00000E+00  9.000E+00
     -13     1     3     3     0     0 -3.687026177E+01 -2.381433924E+01 -1.978975657E+01  4.814752938E+01  1.056583668E-01  0.00000E+00  9.000E+00
      -1     1     1     2     0   511 -4.762356824E+00  2.869311035E+00 -4.990657904E+02  4.990967603E+02  0.000000000E+00  0.00000E+00  9.000E+00
#pdf  -1  1 0.46689813E-02 0.10354491E-01 0.90389668E+02 0.76868602E+00 0.66805467E+00
#rwgt            1           5   638.92548803002398         54217137    18523569           0
</event>
<event>
      6  10013  3.31628E+03  1.63682E+01 -1.00000E+00  1.73839E-01
      -2    -1     0     0     0   501  0.000000000E+00  0.000000000E+00  3.233389132E+02  3.233389132E+02  0.000000000E+00  0.00000E+00  9.000E+00
      21    -1     0     0   501   511  0.000000000E+00  0.000000000E+00 -6.680794678E+01  6.680794678E+01  0.000000000E+00  0.00000E+00  9.000E+00
      23     2     1     2     0     0  2.230457616E-01 -1.636668913E+01  3.156248065E+02  3.288280196E+02  9.077956694E+01  0.00000E+00  9.000E+00
      13     1     3     3     0     0  5.780952326E+00  3.214578978E+01  5.753291576E+01  6.615752995E+01  1.056583668E-01  0.00000E+00  9.000E+00
     -13     1     3     3     0     0 -5.557906565E+00 -4.851247890E+01  2.580918907E+02  2.626704897E+02  1.056583668E-01  0.00000E+00  9.000E+00
      -2     1     1     2     0   511 -2.230457616E-01  1.636668913E+01 -5.909384000E+01  6.131884040E+01  0.000000000E+00  0.00000E+00  9.000E+00
#pdf  -2  2 0.48786594E-01 0.99951429E-03 0.90779567E+02 0.18533849E+00 0.15225945E+01
#rwgt            1           4   310.62837718024230         54217137    18523674           0
</event>
<event>
      6  10013  3.31628E+03  2.16313E+01 -1.00000E+00  1.63567E-01
      -4    -1     0     0     0   511  0.000000000E+00  0.000000000E+00  1.081633067E+02  1.081633067E+02  0.000000000E+00  0.00000E+00  9.000E+00
       4    -1     0     0   501     0  0.000000000E+00  0.000000000E+00 -3.672954773E+01  3.672954773E+01  0.000000000E+00  0.00000E+00  9.000E+00
      23     2     1     2     0     0 -9.960148233E+00  1.920175204E+01  3.413134239E+01  1.017723011E+02  9.340632158E+01  0.00000E+00  9.000E+00
      13     1     3     3     0     0 -4.615844448E+01  1.293083347E+01 -4.882699630E+00  4.818361101E+01  1.056583668E-01  0.00000E+00  9.000E+00
     -13     1     3     3     0     0  3.619829624E+01  6.270918578E+00  3.901404202E+01  5.358869013E+01  1.056583668E-01  0.00000E+00  9.000E+00
      21     1     1     2   501   511  9.960148233E+00 -1.920175204E+01  3.730241656E+01  4.312055328E+01  9.536743164E-07  0.00000E+00  9.000E+00
#pdf  -4  4 0.10184591E-01 0.50689995E-02 0.93406322E+02 0.34637863E+00 0.53121744E+00
#rwgt            1           2   178.91005249441449         54217137    18523763           0
</event>
<event>
      6  10013  3.31628E+03  1.02536E+01 -1.00000E+00  1.94450E-01
      -3    -1     0     0     0   511  0.000000000E+00  0.000000000E+00  1.282037890E+02  1.282037890E+02  0.000000000E+00  0.00000E+00  9.000E+00
       3    -1     0     0   501     0  0.000000000E+00  0.000000000E+00 -2.565166525E+01  2.565166525E+01  0.000000000E+00  0.00000E+00  9.000E+00
      23     2     1     2     0     0  6.316563409E+00  8.077011949E+00  5.649694726E+01  1.066726568E+02  8.990001979E+01  0.00000E+00  9.000E+00
      13     1     3     3     0     0  1.144253032E+01 -2.499294767E+01  6.632399627E+01  7.179458599E+01  1.056583668E-01  0.00000E+00  9.000E+00
     -13     1     3     3     0     0 -5.125966909E+00  3.306995962E+01 -9.827049007E+00  3.487807078E+01  1.056583668E-01  0.00000E+00  9.000E+00
      21     1     1     2   501   511 -6.316563409E+00 -8.077011949E+00  4.605517652E+01  4.718279749E+01  6.743495762E-07  0.00000E+00  9.000E+00
#pdf  -3  3 0.12470656E-01 0.38348075E-02 0.89900020E+02 0.43076638E+00 0.79067175E+00
#rwgt            1           3   295.89690791213883         54217137    18523843           0
</event>
<event>
      6  10013  3.31628E+03  2.32475E+01 -1.00000E+00  1.61113E-01
      21    -1     0     0   511   501  0.000000000E+00  0.000000000E+00  3.051909431E+02  3.051909431E+02  0.000000000E+00  0.00000E+00  9.000E+00
       5    -1     0     0   501     0  0.000000000E+00  0.000000000E+00 -1.310542671E+01  1.310542671E+01  0.000000000E+00  0.00000E+00  9.000E+00
      23     2     1     2     0     0 -3.073397436E+00  2.304346677E+01  2.298976117E+02  2.519052362E+02  1.003139523E+02  0.00000E+00  9.000E+00
      13     1     3     3     0     0 -6.496390881E+00 -2.486749040E+01  1.127221324E+01  2.806544367E+01  1.056583668E-01  0.00000E+00  9.000E+00
     -13     1     3     3     0     0  3.422993444E+00  4.791095717E+01  2.186253985E+02  2.238397926E+02  1.056583668E-01  0.00000E+00  9.000E+00
       5     1     1     2   511     0  3.073397436E+00 -2.304346677E+01  6.218790462E+01  6.639113354E+01  0.000000000E+00  0.00000E+00  9.000E+00
#pdf  -5  5 0.36104895E-01 0.16491870E-02 0.10031395E+03 0.71672774E-01 0.67973421E+00
#rwgt            1           1   80.189378604324389         54217137    18523948           0
</event>
<event>
      6  10013  3.31628E+03  1.43657E+01 -1.00000E+00  1.79121E-01
      21    -1     0     0   511   501  0.000000000E+00  0.000000000E+00  2.795268926E+01  2.795268926E+01  0.000000000E+00  0.00000E+00  9.000E+00
       1    -1     0     0   501     0  0.000000000E+00  0.000000000E+00 -1.073705660E+02  1.073705660E+02  0.000000000E+00  0.00000E+00  9.000E+00
      23     2     1     2     0     0 -1.423181481E+01  1.956726420E+00 -5.073360943E+01  1.032427234E+02  8.876253426E+01  0.00000E+00  9.000E+00
      13     1     3     3     0     0 -2.704934410E+01  4.615551550E+00 -7.268055036E+01  7.768811940E+01  1.056583668E-01  0.00000E+00  9.000E+00
     -13     1     3     3     0     0  1.281752929E+01 -2.658825130E+00  2.194694092E+01  2.555460404E+01  1.056583668E-01  0.00000E+00  9.000E+00
       1     1     1     2   511     0  1.423181481E+01 -1.956726420E+00 -2.868426731E+01  3.208053183E+01  0.000000000E+00  0.00000E+00  9.000E+00
#pdf  -1  1 0.39872797E-02 0.11692193E-01 0.88762534E+02 0.82205934E+00 0.64352077E+00
#rwgt            1           5   701.45829037308329         54217137    18524152           0
</event>
<event>
      6  10013 -3.31628E+03  9.10123E+00 -1.00000E+00  2.00546E-01
      21    -1     0     0   511   501  0.000000000E+00  0.000000000E+00  3.982016317E+02  3.982016317E+02  0.000000000E+00  0.00000E+00  9.000E+00
       4    -1     0     0   501     0  0.000000000E+00  0.000000000E+00 -6.470792423E-01  6.470792423E-01  0.000000000E+00  0.00000E+00  9.000E+00
      23     2     1     2     0     0 -8.377920549E+00  3.555666002E+00  3.006053975E+02  3.014732984E+02  2.096931929E+01  0.00000E+00  9.000E+00
      13     1     3     3     0     0  3.318735786E+00  3.980119758E+00  2.125814954E+01  2.188093796E+01  1.056583668E-01  0.00000E+00  9.000E+00
     -13     1     3     3     0     0 -1.169665634E+01 -4.244537553E-01  2.793472480E+02  2.795923605E+02  1.056583668E-01  0.00000E+00  9.000E+00
       4     1     1     2   511     0  8.377920549E+00 -3.555666002E+00  9.694915500E+01  9.737541254E+01  0.000000000E+00  0.00000E+00  9.000E+00
#pdf  -4  4 0.42484698E-01 0.61242009E-04 0.20969319E+02 0.88395914E-01 0.20668933E+01
#rwgt            1           2  -305.85735654183929         54217137    18524313           0
</event>
<event>
      6  10013  3.31628E+03  6.25040E+00 -1.00000E+00  2.22673E-01
      -2    -1     0     0     0   511  0.000000000E+00  0.000000000E+00  1.677644550E-01  1.677644550E-01  0.000000000E+00  0.00000E+00  9.000E+00
       2    -1     0     0   501     0  0.000000000E+00  0.000000000E+00 -1.938733973E+03  1.938733973E+03  0.000000000E+00  0.00000E+00  9.000E+00
      23     2     1     2     0     0  4.691990650E+00 -4.129491135E+00 -1.727637806E+03  1.727880747E+03  2.829168007E+01  0.00000E+00  9.000E+00
      13     1     3     3     0     0  1.116270238E+01 -1.222859025E+01 -1.347087813E+03  1.347189568E+03  1.056583668E-01  0.00000E+00  9.000E+00
     -13     1     3     3     0     0 -6.470711728E+00  8.099099120E+00 -3.805499928E+02  3.806911789E+02  1.056583668E-01  0.00000E+00  9.000E+00
      21     1     1     2   501   511 -4.691990650E+00  4.129491135E+00 -2.109284029E+02  2.110209909E+02  0.000000000E+00  0.00000E+00  9.000E+00
#pdf  -2  2 0.18247739E-04 0.25955041E+00 0.28291680E+02 0.41631564E+01 0.45329110E+00
#rwgt            1           4   2864.0732838727431         54217137    18524484           0
</event>
<event>
      6  10013  3.31628E+03  8.51452E+00 -1.00000E+00  2.04129E-01
      -4    -1     0     0     0   501  0.000000000E+00  0.000000000E+00  3.596568562E+00  3.596568562E+00  0.000000000E+00  0.00000E+00  9.000E+00
      21    -1     0     0   501   511  0.000000000E+00  0.000000000E+00 -1.910065374E+02  1.910065374E+02  0.000000000E+00  0.00000E+00  9.000E+00
      23     2     1     2     0     0 -8.501068665E+00  4.784890539E-01 -6.318848711E+01  7.009016028E+01  2.910925187E+01  0.00000E+00  9.000E+00
      13     1     3     3     0     0  5.558495337E+00  1.085272393E+01 -3.338623963E+01  3.554336292E+01  1.056583668E-01  0.00000E+00  9.000E+00
     -13     1     3     3     0     0 -1.405956400E+01 -1.037423488E+01 -2.980224748E+01  3.454679736E+01  1.056583668E-01  0.00000E+00  9.000E+00
      -4     1     1     2     0   511  8.501068665E+00 -4.784890539E-01 -1.242214817E+02  1.245129457E+02  0.000000000E+00  0.00000E+00  9.000E+00
#pdf  -4  4 0.50954741E-03 0.98399023E-02 0.29109252E+02 0.11490899E+01 0.29607664E+00
#rwgt            1           2   321.61368518933102         54217137    18524526           0
</event>
<event>
      6  10013  3.31628E+03  1.61618E+01 -1.00000E+00  1.74339E-01
       1    -1     0     0   501     0  0.000000000E+00  0.000000000E+00  1.392568970E+02  1.392568970E+02  0.000000000E+00  0.00000E+00  9.000E+00
      21    -1     0     0   511   501  0.000000000E+00  0.000000000E+00 -2.806042204E+01  2.806042204E+01  0.000000000E+00  0.00000E+00  9.000E+00
      23     2     1     2     0     0  1.591316755E+01 -2.824258052E+00  5.769725858E+01  1.114301874E+02  9.394949532E+01  0.00000E+00  9.000E+00
      13     1     3     3     0     0 -3.897967457E+00  4.275856571E+01  3.997153503E+01  5.866194566E+01  1.056583668E-01  0.00000E+00  9.000E+00
     -13     1     3     3     0     0  1.981113501E+01 -4.558282376E+01  1.772572355E+01  5.276824170E+01  1.056583668E-01  0.00000E+00  9.000E+00
       1     1     1     2   511     0 -1.591316755E+01  2.824258052E+00  5.349921633E+01  5.588713164E+01  0.000000000E+00  0.00000E+00  9.000E+00
#pdf   1 -1 0.12821472E-01 0.40734680E-02 0.93949495E+02 0.62837714E+00 0.81951607E+00
#rwgt            1           6   745.80182987294359         54217137    18524621           0
</event>
<event>
      6  10013  3.31628E+03  2.50683E+01 -1.00000E+00  1.58624E-01
       3    -1     0     0   501     0  0.000000000E+00  0.000000000E+00  7.685702711E+00  7.685702711E+00  0.000000000E+00  0.00000E+00  9.000E+00
      21    -1     0     0   511   501  0.000000000E+00  0.000000000E+00 -4.997780550E+02  4.997780550E+02  0.000000000E+00  0.00000E+00  9.000E+00
      23     2     1     2     0     0 -1.873776359E+01 -1.665287013E+01 -3.062275534E+02  3.199160429E+02  8.912091882E+01  0.00000E+00  9.000E+00
      13     1     3     3     0     0  1.966447410E+01 -2.083373313E+00 -1.264019733E+01  2.346950656E+01  1.056583668E-01  0.00000E+00  9.000E+00
     -13     1     3     3     0     0 -3.840223768E+01 -1.456949681E+01 -2.935873561E+02  2.964465364E+02  1.056583668E-01  0.00000E+00  9.000E+00
       3     1     1     2   511     0  1.873776359E+01  1.665287013E+01 -1.858647988E+02  1.875477148E+02  0.000000000E+00  0.00000E+00  9.000E+00
#pdf   3 -3 0.10136245E-02 0.46365560E-01 0.89120919E+02 0.13955971E+01 0.16200206E+00
#rwgt            1           8   327.48688638380838         54217137    18524677           0
</event>
<event>
      6  10013  3.31628E+03  1.06460E+01 -1.00000E+00  1.92609E-01
      -1    -1     0     0     0   501  0.000000000E+00  0.000000000E+00  1.521263832E+01  1.521263832E+01  0.000000000E+00  0.00000E+00  9.000E+00
      21    -1     0     0   501   511  0.000000000E+00  0.000000000E+00 -1.920269361E+02  1.920269361E+02  0.000000000E+00  0.00000E+00  9.000E+00
      23     2     1     2     0     0 -7.661950526E+00 -7.391375249E+00 -1.291485369E+02  1.583993996E+02  9.109164232E+01  0.00000E+00  9.000E+00
      13     1     3     3     0     0 -3.305586909E+01 -3.147277544E+01 -3.369528361E+01  5.673278925E+01  1.056583668E-01  0.00000E+00  9.000E+00
     -13     1     3     3     0     0  2.539391856E+01  2.408140019E+01 -9.545325326E+01  1.016666103E+02  1.056583668E-01  0.00000E+00  9.000E+00
      -1     1     1     2     0   511  7.661950526E+00  7.391375249E+00 -4.766576091E+01  4.884017482E+01  0.000000000E+00  0.00000E+00  9.000E+00
#pdf  -1  1 0.22348552E-02 0.21969540E-01 0.91091642E+02 0.10538819E+01 0.54187935E+00
#rwgt            1           5   631.91404398469729         54217137    18524718           0
</event>
<event>
      6  10013  3.31628E+03  2.19460E+01 -1.00000E+00  1.63069E-01
       1    -1     0     0   501     0  0.000000000E+00  0.000000000E+00  6.937870068E+02  6.937870068E+02  0.000000000E+00  0.00000E+00  9.000E+00
      -1    -1     0     0     0   511  0.000000000E+00  0.000000000E+00 -7.086237356E+00  7.086237356E+00  0.000000000E+00  0.00000E+00  9.000E+00
      23     2     1     2     0     0  2.076659028E+01 -7.097671113E+00  6.596170205E+02  6.660141325E+02  8.943479633E+01  0.00000E+00  9.000E+00
      13     1     3     3     0     0  5.424616792E+01 -1.507041712E+01  4.626358036E+02  4.660489911E+02  1.056583668E-01  0.00000E+00  9.000E+00
     -13     1     3     3     0     0 -3.347957764E+01  7.972746011E+00  1.969812169E+02  1.999651414E+02  1.056583668E-01  0.00000E+00  9.000E+00
      21     1     1     2   501   511 -2.076659028E+01  7.097671113E+00  2.708374899E+01  3.485911167E+01  1.305872339E-06  0.00000E+00  9.000E+00
#pdf   1 -1 0.99033595E-01 0.47790745E-03 0.89434796E+02 0.36288355E+00 0.19264010E+01
#rwgt            1           6   1115.0894047502970         54217137    18524841           0
</event>
<event>
      6  10013  3.31628E+03  5.33246E+00 -1.00000E+00  2.33649E-01
       1    -1     0     0   511     0  0.000000000E+00  0.000000000E+00  1.594557600E+02  1.594557600E+02  0.000000000E+00  0.00000E+00  9.000E+00
      -1    -1     0     0     0   501  0.000000000E+00  0.000000000E+00 -4.516137764E+00  4.516137764E+00  0.000000000E+00  0.00000E+00  9.000E+00
      23     2     1     2     0     0  4.963001178E+00  1.950323525E+00  2.528825588E+01  3.421091772E+01  2.241552729E+01  0.00000E+00  9.000E+00
      13     1     3     3     0     0  3.460787178E+00  6.755871145E+00 -8.069583320E-01  7.634211698E+00  1.056583668E-01  0.00000E+00  9.000E+00
     -13     1     3     3     0     0  1.502214001E+00 -4.805547619E+00  2.609521421E+01  2.657670603E+01  1.056583668E-01  0.00000E+00  9.000E+00
      21     1     1     2   511   501 -4.963001178E+00 -1.950323525E+00  1.296513663E+02  1.297609800E+02  0.000000000E+00  0.00000E+00  9.000E+00
#pdf   1 -1 0.44526018E-02 0.66772457E-03 0.22415527E+02 0.73824326E+00 0.12618247E+01
#rwgt            1           6   229.29256538838180         54217137    18524868           0
</event>
<event>
      6  10013  3.31628E+03  1.45312E+01 -1.00000E+00  1.78644E-01
      21    -1     0     0   511   501  0.000000000E+00  0.000000000E+00  1.056235263E+01  1.056235263E+01  0.000000000E+00  0.00000E+00  9.000E+00
       2    -1     0     0   501     0  0.000000000E+00  0.000000000E+00 -6.009769535E+01  6.009769535E+01  0.000000000E+00  0.00000E+00  9.000E+00
      23     2     1     2     0     0  1.075086971E+01  9.776161902E+00 -4.745514923E+01  5.598075147E+01  2.589785329E+01  0.00000E+00  9.000E+00
      13     1     3     3     0     0 -6.158619856E+00 -5.318077985E-01 -2.165860216E+00  6.550842101E+00  1.056583668E-01  0.00000E+00  9.000E+00
     -13     1     3     3     0     0  1.690948957E+01  1.030796970E+01 -4.528928902E+01  4.942990937E+01  1.056583668E-01  0.00000E+00  9.000E+00
       2     1     1     2   511     0 -1.075086971E+01 -9.776161902E+00 -2.080193490E+00  1.467929651E+01  0.000000000E+00  0.00000E+00  9.000E+00
#pdf  -2  2 0.57193582E-03 0.69389464E-02 0.25897853E+02 0.13723423E+01 0.73311515E+00
#rwgt            1           4   995.43209938681127         54217137    18524979           0
</event>
<event>
      6  10013  3.31628E+03  9.04954E+00 -1.00000E+00  2.00847E-01
       1    -1     0     0   501     0  0.000000000E+00  0.000000000E+00  6.967014219E+01  6.967014219E+01  0.000000000E+00  0.00000E+00  9.000E+00
      -1    -1     0     0     0   511  0.000000000E+00  0.000000000E+00 -4.704566961E+01  4.704566961E+01  0.000000000E+00  0.00000E+00  9.000E+00
      23     2     1     2     0     0 -8.399014243E+00 -3.369082000E+00  3.842604835E+01  9.850636505E+01  9.024992305E+01  0.00000E+00  9.000E+00
      13     1     3     3     0     0  2.436954418E+01 -2.249327596E+01  4.895580398E+01  5.913124431E+01  1.056583668E-01  0.00000E+00  9.000E+00
     -13     1     3     3     0     0 -3.276855843E+01  1.912419396E+01 -1.052975563E+01  3.937512074E+01  1.056583668E-01  0.00000E+00  9.000E+00
      21     1     1     2   501   511  8.399014243E+00  3.369082000E+00 -1.580157577E+01  1.820944674E+01  2.384185791E-07  0.00000E+00  9.000E+00
#pdf   1 -1 0.10480705E-01 0.45985029E-02 0.90249923E+02 0.66555012E+00 0.77373138E+00
#rwgt            1           6   710.20138241076893         54217137    18525055           0
</event>
<event>
      6  10013  3.31628E+03  3.59965E+01 -1.00000E+00  1.47706E-01
       2    -1     0     0   501     0  0.000000000E+00  0.000000000E+00  8.670872439E+02  8.670872439E+02  0.000000000E+00  0.00000E+00  9.000E+00
      21    -1     0     0   511   501  0.000000000E+00  0.000000000E+00 -1.830471983E+00  1.830471983E+00  0.000000000E+00  0.00000E+00  9.000E+00
      23     2     1     2     0     0  3.165554783E+01 -1.713702476E+01  4.074131613E+02  4.096612265E+02  2.326123622E+01  0.00000E+00  9.000E+00
      13     1     3     3     0     0  3.343453767E+01 -9.155668669E+00  3.337919596E+02  3.355872138E+02  1.056583668E-01  0.00000E+00  9.000E+00
     -13     1     3     3     0     0 -1.778989841E+00 -7.981356090E+00  7.362120171E+01  7.407401268E+01  1.056583668E-01  0.00000E+00  9.000E+00
       2     1     1     2   511     0 -3.165554783E+01  1.713702476E+01  4.578436106E+02  4.592564894E+02  0.000000000E+00  0.00000E+00  9.000E+00
#pdf   2 -2 0.34112676E-01 0.93856226E-04 0.23261236E+02 0.62535380E+00 0.23677327E+01
#rwgt            1           7   1498.0583610183467         54217137    18525112           0
</event>
<event>
      6  10013  3.31628E+03  4.68049E+00 -1.00000E+00  2.48269E-01
      21    -1     0     0   511   501  0.000000000E+00  0.000000000E+00  1.197007527E+01  1.197007527E+01  0.000000000E+00  0.00000E+00  9.000E+00
       1    -1     0     0   501     0  0.000000000E+00  0.000000000E+00 -2.248429715E+02  2.248429715E+02  0.000000000E+00  0.00000E+00  9.000E+00
      23     2     1     2     0     0  9.722702129E-01  4.578393738E+00 -2.132667127E+02  2.321160169E+02  9.150545074E+01  0.00000E+00  9.000E+00
      13     1     3     3     0     0  2.907021204E+01 -2.256014187E+01 -1.695138253E+02  1.734617691E+02  1.056583668E-01  0.00000E+00  9.000E+00
     -13     1     3     3     0     0 -2.809794183E+01  2.713853561E+01 -4.375288749E+01  5.865424773E+01  1.056583668E-01  0.00000E+00  9.000E+00
       1     1     1     2   511     0 -9.722702129E-01 -4.578393738E+00  3.938165211E-01  4.697029917E+00  0.000000000E+00  0.00000E+00  9.000E+00
#pdf  -1  1 0.14480534E-02 0.34215480E-01 0.91505451E+02 0.12584809E+01 0.48644089E+00
#rwgt            1           5   1098.7637319125836         54217137    18525152           0
</event>
<event>
      6  10013  3.31628E+03  5.63357E+00 -1.00000E+00  2.29726E-01
      21    -1     0     0   501   511  0.000000000E+00  0.000000000E+00  2.719318032E+00  2.719318032E+00  0.000000000E+00  0.00000E+00  9.000E+00
      -4    -1     0     0     0   501  0.000000000E+00  0.000000000E+00 -1.145546914E+02  1.145546914E+02  0.000000000E+00  0.00000E+00  9.000E+00
      23     2     1     2     0     0  5.542512794E+00 -1.008776788E+00 -1.053522435E+02  1.086851765E+02  2.610814622E+01  0.00000E+00  9.000E+00
      13     1     3     3     0     0  4.853914887E+00  8.446706112E+00 -9.077216274E+01  9.129350484E+01  1.056583668E-01  0.00000E+00  9.000E+00
     -13     1     3     3     0     0  6.885979074E-01 -9.455482900E+00 -1.458008073E+01  1.739167162E+01  1.056583668E-01  0.00000E+00  9.000E+00
      -4     1     1     2     0   511 -5.542512794E+00  1.008776788E+00 -6.483129926E+00  8.588833001E+00  0.000000000E+00  0.00000E+00  9.000E+00
#pdf   4 -4 0.25061157E-03 0.16094009E-01 0.26108146E+02 0.14265105E+01 0.20992459E+00
#rwgt            1           9   278.37297549213787         54217137    18525262           0
</event>
<event>
      6  10013  3.31628E+03  1.13676E+01 -1.00000E+00  1.89480E-01
       1    -1     0     0   511     0  0.000000000E+00  0.000000000E+00  1.504810006E+02  1.504810006E+02  0.000000000E+00  0.00000E+00  9.000E+00
      -1    -1     0     0     0   501  0.000000000E+00  0.000000000E+00 -2.281129271E+01  2.281129271E+01  0.000000000E+00  0.00000E+00  9.000E+00
      23     2     1     2     0     0 -6.429216436E+00  9.374774854E+00  7.120083621E+01  1.156906033E+02  9.047394863E+01  0.00000E+00  9.000E+00
      13     1     3     3     0     0  2.729793267E+01 -1.764334727E+01  1.195391647E-01  3.250369647E+01  1.056583668E-01  0.00000E+00  9.000E+00
     -13     1     3     3     0     0 -3.372714911E+01  2.701812212E+01  7.108129704E+01  8.318690680E+01  1.056583668E-01  0.00000E+00  9.000E+00
      21     1     1     2   511   501  6.429216436E+00 -9.374774854E+00  5.646887165E+01  5.760169002E+01  6.743495762E-07  0.00000E+00  9.000E+00
#pdf   1 -1 0.14264115E-01 0.33955924E-02 0.90473949E+02 0.60826154E+00 0.88299162E+00
#rwgt            1           6   616.49769497852071         54217137    18525375           0
</event>
<event>
      6  10013  3.31628E+03  1.75367E+01 -1.00000E+00  1.71177E-01
      -2    -1     0     0     0   511  0.000000000E+00  0.000000000E+00  3.610564498E+00  3.610564498E+00  0.000000000E+00  0.00000E+00  9.000E+00
       2    -1     0     0   501     0  0.000000000E+00  0.000000000E+00 -9.938917200E+02  9.938917200E+02  0.000000000E+00  0.00000E+00  9.000E+00
      23     2     1     2     0     0 -1.752931195E+01 -5.099933357E-01 -9.308430731E+02  9.355311419E+02  9.188119467E+01  0.00000E+00  9.000E+00
      13     1     3     3     0     0 -1.031305603E+01 -2.638594753E+01 -8.473373437E+02  8.478108059E+02  1.056583668E-01  0.00000E+00  9.000E+00
     -13     1     3     3     0     0 -7.216255910E+00  2.587595419E+01 -8.350572940E+01  8.772033607E+01  1.056583668E-01  0.00000E+00  9.000E+00
      21     1     1     2   501   511  1.752931195E+01  5.099933357E-01 -5.943808245E+01  6.197114261E+01  1.168007728E-06  0.00000E+00  9.000E+00
#pdf  -2  2 0.35422639E-03 0.14102161E+00 0.91881195E+02 0.21599785E+01 0.56412432E+00
#rwgt            1           4   1718.6236432102423         54217137    18525441           0
</event>
<event>
      6  10013  3.31628E+03  6.96269E+00 -1.00000E+00  2.15811E-01
      21    -1     0     0   501   511  0.000000000E+00  0.000000000E+00  1.839847180E+02  1.839847180E+02  0.000000000E+00  0.00000E+00  9.000E+00
      -4    -1     0     0     0   501  0.000000000E+00  0.000000000E+00 -1.373615444E+01  1.373615444E+01  0.000000000E+00  0.00000E+00  9.000E+00
      23     2     1     2     0     0  1.735431412E+00 -6.742949954E+00  1.388095770E+02  1.655201120E+02  8.989065421E+01  0.00000E+00  9.000E+00
      13     1     3     3     0     0 -2.268053340E+01 -3.096162747E+01  2.307200556E+01  4.478121900E+01  1.056583668E-01  0.00000E+00  9.000E+00
     -13     1     3     3     0     0  2.441596481E+01  2.421867751E+01  1.157375714E+02  1.207388930E+02  1.056583668E-01  0.00000E+00  9.000E+00
      -4     1     1     2     0   511 -1.735431412E+00  6.742949954E+00  3.143898655E+01  3.220076042E+01  0.000000000E+00  0.00000E+00  9.000E+00
#pdf   4 -4 0.23340065E-01 0.20485205E-02 0.89890654E+02 0.18359948E+00 0.84497512E+00
#rwgt            1           9   140.85097726981832         54217137    18525518           0
</event>
<event>
      6  10013  3.31628E+03  1.80037E+00 -1.00000E+00  3.85573E-01
       4    -1     0     0   511     0  0.000000000E+00  0.000000000E+00  3.250141001E+02  3.250141001E+02  0.000000000E+00  0.00000E+00  9.000E+00
      -4    -1     0     0     0   501  0.000000000E+00  0.000000000E+00 -6.627509122E+00  6.627509122E+00  0.000000000E+00  0.00000E+00  9.000E+00
      23     2     1     2     0     0 -1.326443966E+00  1.217327673E+00  3.108896419E+02  3.239315129E+02  9.097260165E+01  0.00000E+00  9.000E+00
      13     1     3     3     0     0  4.040446438E+01  1.329743706E+01  1.009814204E+02  1.095746367E+02  1.056583668E-01  0.00000E+00  9.000E+00
     -13     1     3     3     0     0 -4.173090835E+01 -1.208010938E+01  2.099082215E+02  2.143568762E+02  1.056583668E-01  0.00000E+00  9.000E+00
      21     1     1     2   511   501  1.326443966E+00 -1.217327673E+00  7.496949137E+00  7.710096408E+00  0.000000000E+00  0.00000E+00  9.000E+00
#pdf   4 -4 0.48822837E-01 0.10030244E-02 0.90972602E+02 0.87187656E-01 0.11756877E+01
#rwgt            1           9   113.53652572563372         54217137    18525699           0
</event>
<event>
      6  10013  3.31628E+03  7.27568E+00 -1.00000E+00  2.13140E-01
      -2    -1     0     0     0   501  0.000000000E+00  0.000000000E+00  1.177575203E+00  1.177575203E+00  0.000000000E+00  0.00000E+00  9.000E+00
       2    -1     0     0   511     0  0.000000000E+00  0.000000000E+00 -9.790920146E+02  9.790920146E+02  0.000000000E+00  0.00000E+00  9.000E+00
      23     2     1     2     0     0  4.695346999E+00 -5.557802199E+00 -7.650037946E+02  7.672346675E+02  5.801115262E+01  0.00000E+00  9.000E+00
      13     1     3     3     0     0 -2.052059469E+01 -1.732245188E+01 -2.407885211E+02  2.422814174E+02  1.056583668E-01  0.00000E+00  9.000E+00
     -13     1     3     3     0     0  2.521594169E+01  1.176464968E+01 -5.242152735E+02  5.249532501E+02  1.056583668E-01  0.00000E+00  9.000E+00
      21     1     1     2   511   501 -4.695346999E+00  5.557802199E+00 -2.129106449E+02  2.130349224E+02  2.697398305E-06  0.00000E+00  9.000E+00
#pdf  -2  2 0.17027166E-03 0.11694830E+00 0.58011153E+02 0.25380326E+01 0.59753259E+00
#rwgt            1           4   1936.4513619227780         54217137    18526130           0
</event>
<event>
      6  10013  3.31628E+03  7.43283E+00 -1.00000E+00  2.11867E-01
       2    -1     0     0   501     0  0.000000000E+00  0.000000000E+00  8.377668006E-01  8.377668006E-01  0.000000000E+00  0.00000E+00  9.000E+00
      21    -1     0     0   511   501  0.000000000E+00  0.000000000E+00 -5.382791219E+02  5.382791219E+02  0.000000000E+00  0.00000E+00  9.000E+00
      23     2     1     2     0     0 -3.084511616E+00  6.762599599E+00 -5.015047908E+02  5.024197006E+02  2.938117303E+01  0.00000E+00  9.000E+00
      13     1     3     3     0     0 -1.596272868E+01  5.381719581E+00 -3.278675367E+02  3.283000219E+02  1.056583668E-01  0.00000E+00  9.000E+00
     -13     1     3     3     0     0  1.287821707E+01  1.380880018E+00 -1.736372541E+02  1.741196786E+02  1.056583668E-01  0.00000E+00  9.000E+00
       2     1     1     2   511     0  3.084511616E+00 -6.762599599E+00 -3.593656424E+01  3.669718810E+01  0.000000000E+00  0.00000E+00  9.000E+00
#pdf   2 -2 0.68228273E-04 0.74866439E-01 0.29381173E+02 0.28375967E+01 0.12570004E+00
#rwgt            1           7   425.58466240351441         54217137    18526254           0
</event>
<event>
      6  10013  3.31628E+03  1.45285E+01 -1.00000E+00  1.78652E-01
       4    -1     0     0   501     0  0.000000000E+00  0.000000000E+00  4.531745616E+01  4.531745616E+01  0.000000000E+00  0.00000E+00  9.000E+00
      21    -1     0     0   511   501  0.000000000E+00  0.000000000E+00 -1.293965065E+01  1.293965065E+01  0.000000000E+00  0.00000E+00  9.000E+00
      23     2     1     2     0     0  8.999823412E+00  1.140532583E+01  3.021446399E+01  4.356839260E+01  2.782467827E+01  0.00000E+00  9.000E+00
      13     1     3     3     0     0 -3.911320854E+00 -5.394972721E+00  1.780935425E+01  1.901547854E+01  1.056583668E-01  0.00000E+00  9.000E+00
     -13     1     3     3     0     0  1.291114427E+01  1.680029855E+01  1.240510974E+01  2.455291406E+01  1.056583668E-01  0.00000E+00  9.000E+00
       4     1     1     2   511     0 -8.999823412E+00 -1.140532583E+01  2.163341517E+00  1.468871421E+01  0.000000000E+00  0.00000E+00  9.000E+00
#pdf   4 -4 0.50310659E-02 0.91057053E-03 0.27824678E+02 0.42659531E+00 0.90815960E+00
#rwgt            1           9   384.66379493091125         54217137    18526306           0
</event>
<event>
      6  10013  3.31628E+03  1.07952E+01 -1.00000E+00  1.91937E-01
       4    -1     0     0   501     0  0.000000000E+00  0.000000000E+00  1.428072624E+02  1.428072624E+02  0.000000000E+00  0.00000E+00  9.000E+00
      21    -1     0     0   511   501  0.000000000E+00  0.000000000E+00 -3.172054171E+01  3.172054171E+01  0.000000000E+00  0.00000E+00  9.000E+00
      23     2     1     2     0     0  9.111884851E-01  1.075663338E+01  1.271260312E+02  1.551940278E+02  8.836075498E+01  0.00000E+00  9.000E+00
      13     1     3     3     0     0 -3.276572103E+01 -2.270393752E+01  4.327818998E+01  5.883939280E+01  1.056583668E-01  0.00000E+00  9.000E+00
     -13     1     3     3     0     0  3.367690952E+01  3.346057090E+01  8.384784121E+01  9.635463496E+01  1.056583668E-01  0.00000E+00  9.000E+00
       4     1     1     2   511     0 -9.111884851E-01 -1.075663338E+01 -1.603931050E+01  1.933377634E+01  0.000000000E+00  0.00000E+00  9.000E+00
#pdf   4 -4 0.21556648E-01 0.21431418E-02 0.88360755E+02 0.19625376E+00 0.82422678E+00
#rwgt            1           9   191.10071536877729         54217137    18526351           0
</event>
<event>
      6  10013  3.31628E+03  6.46724E+00 -1.00000E+00  2.20455E-01
      -2    -1     0     0     0   501  0.000000000E+00  0.000000000E+00  2.684883863E+00  2.684883863E+00  0.000000000E+00  0.00000E+00  9.000E+00
       2    -1     0     0   511     0  0.000000000E+00  0.000000000E+00 -8.997287525E+02  8.997287525E+02  0.000000000E+00  0.00000E+00  9.000E+00
      23     2     1     2     0     0  9.541608130E-01 -6.396462312E+00 -7.832590456E+02  7.884451709E+02  9.005126285E+01  0.00000E+00  9.000E+00
      13     1     3     3     0     0  3.737690166E+01 -1.619866812E+01 -5.979685781E+02  5.993545372E+02  1.056583668E-01  0.00000E+00  9.000E+00
     -13     1     3     3     0     0 -3.642274084E+01  9.802205809E+00 -1.852904674E+02  1.890906338E+02  1.056583668E-01  0.00000E+00  9.000E+00
      21     1     1     2   511   501 -9.541608130E-01  6.396462312E+00 -1.137848231E+02  1.139684655E+02  1.348699152E-06  0.00000E+00  9.000E+00
#pdf  -2  2 0.39790789E-03 0.12058974E+00 0.90051263E+02 0.20601479E+01 0.58514810E+00
#rwgt            1           4   1516.2977095726876         54217137    18526502           0
</event>
<event>
      6  10013  3.31628E+03  6.12228E+01 -1.00000E+00  1.34210E-01
       1    -1     0     0   501     0  0.000000000E+00  0.000000000E+00  1.372952170E+01  1.372952170E+01  0.000000000E+00  0.00000E+00  9.000E+00
      21    -1     0     0   511   501  0.000000000E+00  0.000000000E+00 -5.481347078E+02  5.481347078E+02  0.000000000E+00  0.00000E+00  9.000E+00
      23     2     1     2     0     0  5.728884004E+01 -2.159227065E+01 -3.848335032E+02  4.002476286E+02  9.139530461E+01  0.00000E+00  9.000E+00
      13     1     3     3     0     0  1.111128227E+01 -1.676250994E+01 -3.193047999E+02  3.199375075E+02  1.056583668E-01  0.00000E+00  9.000E+00
     -13     1     3     3     0     0  4.617755777E+01 -4.829760711E+00 -6.552870329E+01  8.031012109E+01  1.056583668E-01  0.00000E+00  9.000E+00
       1     1     1     2   511     0 -5.728884004E+01  2.159227065E+01 -1.495716829E+02  1.616166009E+02  0.000000000E+00  0.00000E+00  9.000E+00
#pdf   1 -1 0.98510542E-03 0.50173958E-01 0.91395305E+02 0.15099623E+01 0.21343805E+00
#rwgt            1           6   394.47882213488714         54217137    18526636           0
</event>
<event>
      6  10013  3.31628E+03  2.22109E+00 -1.00000E+00  3.42888E-01
       2    -1     0     0   501     0  0.000000000E+00  0.000000000E+00  3.361235243E+03  3.361235243E+03  0.000000000E+00  0.00000E+00  9.000E+00
      -2    -1     0     0     0   511  0.000000000E+00  0.000000000E+00 -5.622387009E-02  5.622387009E-02  0.000000000E+00  0.00000E+00  9.000E+00
      23     2     1     2     0     0 -8.778448048E-01  2.040246963E+00  3.146893156E+03  3.146994093E+03  2.510685596E+01  0.00000E+00  9.000E+00
      13     1     3     3     0     0  8.769007090E+00  6.174181251E+00  7.365048597E+02  7.365829455E+02  1.056583668E-01  0.00000E+00  9.000E+00
     -13     1     3     3     0     0 -9.646851895E+00 -4.133934288E+00  2.410388296E+03  2.410411147E+03  1.056583668E-01  0.00000E+00  9.000E+00
      21     1     1     2   501   511  8.778448048E-01 -2.040246963E+00  2.142858636E+02  2.142973741E+02  0.000000000E+00  0.00000E+00  9.000E+00
#pdf   2 -2 0.48226173E+00 0.77341956E-05 0.25106856E+02 0.15488363E+00 0.51073879E+01
#rwgt            1           7   3498.5832900548057         54217137    18526684           0
</event>
<event>
      6  10013  3.31628E+03  2.21029E+01 -1.00000E+00  1.62825E-01
      -1    -1     0     0     0   501  0.000000000E+00  0.000000000E+00  7.340354475E+00  7.340354475E+00  0.000000000E+00  0.00000E+00  9.000E+00
       1    -1     0     0   511     0  0.000000000E+00  0.000000000E+00 -4.706387393E+02  4.706387393E+02  0.000000000E+00  0.00000E+00  9.000E+00
      23     2     1     2     0     0  8.300160874E+00 -2.048525730E+01 -3.420853193E+02  3.547673018E+02  9.137250288E+01  0.00000E+00  9.000E+00
      13     1     3     3     0     0 -3.715889782E+01 -2.789089873E+01 -1.403336695E+02  1.478250177E+02  1.056583668E-01  0.00000E+00  9.000E+00
     -13     1     3     3     0     0  4.545905870E+01  7.405641428E+00 -2.017516499E+02  2.069422841E+02  1.056583668E-01  0.00000E+00  9.000E+00
      21     1     1     2   511   501 -8.300160874E+00  2.048525730E+01 -1.212130654E+02  1.232117919E+02  1.348699152E-06  0.00000E+00  9.000E+00
#pdf  -1  1 0.94818979E-03 0.52101360E-01 0.91372503E+02 0.14877058E+01 0.44016635E+00
#rwgt            1           5   756.29344359753838         54217137    18526773           0
</event>
<event>
      6  10013  3.31628E+03  2.22810E+00 -1.00000E+00  3.42324E-01
      -2    -1     0     0     0   501  0.000000000E+00  0.000000000E+00  1.399682132E+00  1.399682132E+00  0.000000000E+00  0.00000E+00  9.000E+00
       2    -1     0     0   511     0  0.000000000E+00  0.000000000E+00 -1.010743001E+02  1.010743001E+02  0.000000000E+00  0.00000E+00  9.000E+00
      23     2     1     2     0     0 -8.407534162E-01  2.063387543E+00 -7.629468409E+01  7.898811962E+01  2.032928396E+01  0.00000E+00  9.000E+00
      13     1     3     3     0     0 -5.241119948E+00  8.831256400E+00 -2.446071253E+01  2.652919240E+01  1.056583668E-01  0.00000E+00  9.000E+00
     -13     1     3     3     0     0  4.400366532E+00 -6.767868856E+00 -5.183397155E+01  5.245892722E+01  1.056583668E-01  0.00000E+00  9.000E+00
      21     1     1     2   511   501  8.407534162E-01 -2.063387543E+00 -2.337993390E+01  2.348586263E+01  0.000000000E+00  0.00000E+00  9.000E+00
#pdf  -2  2 0.20595405E-03 0.11873729E-01 0.20329284E+02 0.17779936E+01 0.65822221E+00
#rwgt            1           4   1082.7927746412997         54217137    18526841           0
</event>
<event>
      6  10013  3.31628E+03  1.34739E+01 -1.00000E+00  1.81839E-01
       2    -1     0     0   501     0  0.000000000E+00  0.000000000E+00  1.483270343E+03  1.483270343E+03  0.000000000E+00  0.00000E+00  9.000E+00
      -2    -1     0     0     0   511  0.000000000E+00  0.000000000E+00 -2.729719637E+00  2.729719637E+00  0.000000000E+00  0.00000E+00  9.000E+00
      23     2     1     2     0     0 -1.710875362E+00  1.336488133E+01  1.445821659E+03  1.448758236E+03  9.120641552E+01  0.00000E+00  9.000E+00
      13     1     3     3     0     0 -1.800769552E+01  3.943907207E+00  5.909126918E+01  6.190008691E+01  1.056583668E-01  0.00000E+00  9.000E+00
     -13     1     3     3     0     0  1.629682016E+01  9.420974127E+00  1.386730390E+03  1.386858149E+03  1.056583668E-01  0.00000E+00  9.000E+00
      21     1     1     2   501   511  1.710875362E+00 -1.336488133E+01  3.471896418E+01  3.724182624E+01  1.719260824E-06  0.00000E+00  9.000E+00
#pdf   2 -2 0.22026936E+00 0.22346524E-03 0.91206416E+02 0.46201333E+00 0.25554743E+01
#rwgt            1           7   1438.8611146174062         54217137    18526962           0
</event>
<event>
      6  10013  3.31628E+03  1.68323E+01 -1.00000E+00  1.72750E-01
       2    -1     0     0   511     0  0.000000000E+00  0.000000000E+00  2.040515388E+02  2.040515388E+02  0.000000000E+00  0.00000E+00  9.000E+00
      -2    -1     0     0     0   501  0.000000000E+00  0.000000000E+00 -1.117511976E+02  1.117511976E+02  0.000000000E+00  0.00000E+00  9.000E+00
      23     2     1     2     0     0  2.203954684E+00  1.668736619E+01 -9.181160300E+01  1.309229549E+02  9.180481499E+01  0.00000E+00  9.000E+00
      13     1     3     3     0     0  1.669717923E+01 -2.007050611E+01 -8.733992843E+01  9.115862697E+01  1.056583668E-01  0.00000E+00  9.000E+00
     -13     1     3     3     0     0 -1.449322455E+01  3.675787231E+01 -4.471674570E+00  3.976432788E+01  1.056583668E-01  0.00000E+00  9.000E+00
      21     1     1     2   511   501 -2.203954684E+00 -1.668736619E+01  1.841119442E+02  1.848797815E+02  2.697398305E-06  0.00000E+00  9.000E+00
#pdf   2 -2 0.29592368E-02 0.16852506E-01 0.91804815E+02 0.10589422E+01 0.39197248E+00
#rwgt            1           7   375.20541842684315         54217137    18527023           0
</event>
<event>
      6  10013  3.31628E+03  3.94048E+00 -1.00000E+00  2.64904E-01
      -1    -1     0     0     0   501  0.000000000E+00  0.000000000E+00  2.699626403E+00  2.699626403E+00  0.000000000E+00  0.00000E+00  9.000E+00
      21    -1     0     0   501   511  0.000000000E+00  0.000000000E+00 -8.401358123E+01  8.401358123E+01  0.000000000E+00  0.00000E+00  9.000E+00
      23     2     1     2     0     0  3.940354777E+00  3.085652962E-02 -3.803097989E+01  4.325123268E+01  2.021846554E+01  0.00000E+00  9.000E+00
      13     1     3     3     0     0  8.147276256E+00  1.557212047E+00 -4.528496581E+00  9.451003371E+00  1.056583668E-01  0.00000E+00  9.000E+00
     -13     1     3     3     0     0 -4.206921479E+00 -1.526355517E+00 -3.350248331E+01  3.380022931E+01  1.056583668E-01  0.00000E+00  9.000E+00
      -1     1     1     2     0   511 -3.940354777E+00 -3.085652962E-02 -4.328297493E+01  4.346197496E+01  0.000000000E+00  0.00000E+00  9.000E+00
#pdf  -1  1 0.39414212E-03 0.61370100E-02 0.20218466E+02 0.14531169E+01 0.66819193E+00
#rwgt            1           5   207.75192841929533         54217137    18527081           0
</event>
<event>
      6  10013  3.31628E+03  6.00610E+00 -1.00000E+00  2.25325E-01
       2    -1     0     0   501     0  0.000000000E+00  0.000000000E+00  3.895319996E+00  3.895319996E+00  0.000000000E+00  0.00000E+00  9.000E+00
      -2    -1     0     0     0   511  0.000000000E+00  0.000000000E+00 -4.199618466E+02  4.199618466E+02  0.000000000E+00  0.00000E+00  9.000E+00
      23     2     1     2     0     0  6.011537001E-01  5.975941564E+00 -2.855928592E+02  2.932453328E+02  6.628326087E+01  0.00000E+00  9.000E+00
      13     1     3     3     0     0 -3.150071339E+01  3.942993151E+00 -1.010328763E+02  1.059032360E+02  1.056583668E-01  0.00000E+00  9.000E+00
     -13     1     3     3     0     0  3.210186709E+01  2.032948413E+00 -1.845599830E+02  1.873420968E+02  1.056583668E-01  0.00000E+00  9.000E+00
      21     1     1     2   501   511 -6.011537001E-01 -5.975941564E+00 -1.304736673E+02  1.306118338E+02  2.697398305E-06  0.00000E+00  9.000E+00
#pdf   2 -2 0.58624998E-03 0.44344339E-01 0.66283261E+02 0.17332269E+01 0.20090993E+00
#rwgt            1           7   279.43187680075778         54217137    18527157           0
</event>
<event>
      6  10013  3.31628E+03  4.61302E+00 -1.00000E+00  2.49587E-01
      21    -1     0     0   511   501  0.000000000E+00  0.000000000E+00  3.555812024E+01  3.555812024E+01  0.000000000E+00  0.00000E+00  9.000E+00
       2    -1     0     0   501     0  0.000000000E+00  0.000000000E+00 -1.157871036E+01  1.157871036E+01  0.000000000E+00  0.00000E+00  9.000E+00
      23     2     1     2     0     0  1.205843860E+00  4.452628084E+00  2.777106457E+00  2.543849825E+01  2.486211810E+01  0.00000E+00  9.000E+00
      13     1     3     3     0     0  2.594286084E+00 -8.341270412E+00 -5.325009268E+00  1.023103122E+01  1.056583668E-01  0.00000E+00  9.000E+00
     -13     1     3     3     0     0 -1.388442223E+00  1.279389850E+01  8.102115725E+00  1.520746703E+01  1.056583668E-01  0.00000E+00  9.000E+00
       2     1     1     2   511     0 -1.205843860E+00 -4.452628084E+00  2.120230343E+01  2.169833235E+01  0.000000000E+00  0.00000E+00  9.000E+00
#pdf  -2  2 0.21340086E-02 0.17139312E-02 0.24862118E+02 0.86008787E+00 0.10192751E+01
#rwgt            1           4   736.88353669494677         54217137    18527225           0
</event>
<event>
      6  10013  3.31628E+03  1.35032E+01 -1.00000E+00  1.81745E-01
      -2    -1     0     0     0   511  0.000000000E+00  0.000000000E+00  4.215241317E+00  4.215241317E+00  0.000000000E+00  0.00000E+00  9.000E+00
       2    -1     0     0   501     0  0.000000000E+00  0.000000000E+00 -1.999838212E+03  1.999838212E+03  0.000000000E+00  0.00000E+00  9.000E+00
      23     2     1     2     0     0  3.112763817E+00  1.313953318E+01 -1.984503539E+03  1.986561215E+03  8.938024669E+01  0.00000E+00  9.000E+00
      13     1     3     3     0     0  2.219086656E+01 -2.814637765E+01 -4.658541704E+02  4.672309625E+02  1.056583668E-01  0.00000E+00  9.000E+00
     -13     1     3     3     0     0 -1.907810275E+01  4.128591083E+01 -1.518649369E+03  1.519330253E+03  1.056583668E-01  0.00000E+00  9.000E+00
      21     1     1     2   501   511 -3.112763817E+00 -1.313953318E+01 -1.111943127E+01  1.749223778E+01  1.715123006E-06  0.00000E+00  9.000E+00
#pdf  -2  2 0.15650680E-03 0.30203910E+00 0.89380247E+02 0.28934552E+01 0.34159673E+00
#rwgt            1           4   1939.7186480675671         54217137    18527314           0
</event>
<event>
      6  10013  3.31628E+03  3.49117E+01 -1.00000E+00  1.48570E-01
      21    -1     0     0   501   511  0.000000000E+00  0.000000000E+00  1.541066230E+01  1.541066230E+01  0.000000000E+00  0.00000E+00  9.000E+00
      -3    -1     0     0     0   501  0.000000000E+00  0.000000000E+00 -2.900177470E+02  2.900177470E+02  0.000000000E+00  0.00000E+00  9.000E+00
      23     2     1     2     0     0 -3.193805106E+01  1.409912400E+01 -1.738909000E+02  1.988330329E+02  8.987605619E+01  0.00000E+00  9.000E+00
      13     1     3     3     0     0 -6.286237131E+01  1.106429508E+00 -1.126100367E+02  1.289726073E+02  1.056583668E-01  0.00000E+00  9.000E+00
     -13     1     3     3     0     0  3.092432025E+01  1.299269449E+01 -6.128086329E+01  6.986042558E+01  1.056583668E-01  0.00000E+00  9.000E+00
      -3     1     1     2     0   511  3.193805106E+01 -1.409912400E+01 -1.007161847E+02  1.065953764E+02  0.000000000E+00  0.00000E+00  9.000E+00
#pdf   3 -3 0.17884377E-02 0.26725602E-01 0.89876056E+02 0.11063803E+01 0.25992717E+00
#rwgt            1           8   360.29937263602051         54217137    18527389           0
</event>
<event>
      6  10013  3.31628E+03  1.64863E+00 -1.00000E+00  4.07102E-01
      -2    -1     0     0     0   501  0.000000000E+00  0.000000000E+00  3.018402213E-01  3.018402213E-01  0.000000000E+00  0.00000E+00  9.000E+00
       2    -1     0     0   511     0  0.000000000E+00  0.000000000E+00 -5.395632331E+02  5.395632331E+02  0.000000000E+00  0.00000E+00  9.000E+00
      23     2     1     2     0     0  6.555570685E-01  1.512689169E+00 -5.015509168E+02  5.021185769E+02  2.381229039E+01  0.00000E+00  9.000E+00
      13     1     3     3     0     0 -8.278944860E+00  2.478915836E+00 -4.173336464E+02  4.174231301E+02  1.056583668E-01  0.00000E+00  9.000E+00
     -13     1     3     3     0     0  8.934501928E+00 -9.662266665E-01 -8.421727040E+01  8.469544684E+01  1.056583668E-01  0.00000E+00  9.000E+00
      21     1     1     2   511   501 -6.555570685E-01 -1.512689169E+00 -3.771047608E+01  3.774649640E+01  0.000000000E+00  0.00000E+00  9.000E+00
#pdf  -2  2 0.43561884E-04 0.77020970E-01 0.23812290E+02 0.30127861E+01 0.62837255E+00
#rwgt            1           4   2004.7988054165021         54217137    18527430           0
</event>
<event>
      6  10013  3.31628E+03  8.19086E+00 -1.00000E+00  2.06276E-01
       1    -1     0     0   501     0  0.000000000E+00  0.000000000E+00  2.846966311E+02  2.846966311E+02  0.000000000E+00  0.00000E+00  9.000E+00
      21    -1     0     0   511   501  0.000000000E+00  0.000000000E+00 -9.101685970E+00  9.101685970E+00  0.000000000E+00  0.00000E+00  9.000E+00
      23     2     1     2     0     0 -6.575452020E+00  4.884018604E+00  2.674556716E+02  2.822511104E+02  8.981126257E+01  0.00000E+00  9.000E+00
      13     1     3     3     0     0 -3.952916814E+01  1.053452704E+01  2.224763435E+02  2.262062466E+02  1.056583668E-01  0.00000E+00  9.000E+00
     -13     1     3     3     0     0  3.295371612E+01 -5.650508435E+00  4.497932803E+01  5.604486386E+01  1.056583668E-01  0.00000E+00  9.000E+00
       1     1     1     2   511     0  6.575452020E+00 -4.884018604E+00  8.139273585E+00  1.154720665E+01  0.000000000E+00  0.00000E+00  9.000E+00
#pdf   1 -1 0.42110371E-01 0.11334068E-02 0.89811263E+02 0.46324434E+00 0.13831921E+01
#rwgt            1           6   1288.7089865332282         54217137    18527723           0
</event>
<event>
      6  10013  3.31628E+03  1.43181E+01 -1.00000E+00  1.79260E-01
      21    -1     0     0   501   511  0.000000000E+00  0.000000000E+00  1.036496620E+02  1.036496620E+02  0.000000000E+00  0.00000E+00  9.000E+00
      -2    -1     0     0     0   501  0.000000000E+00  0.000000000E+00 -2.788358203E+01  2.788358203E+01  0.000000000E+00  0.00000E+00  9.000E+00
      23     2     1     2     0     0  3.559188622E+00  1.386864900E+01  5.941513835E+01  1.097993870E+02  9.121808742E+01  0.00000E+00  9.000E+00
      13     1     3     3     0     0  1.986496929E+01  4.900025187E+01  2.741490395E+01  5.955862499E+01  1.056583668E-01  0.00000E+00  9.000E+00
     -13     1     3     3     0     0 -1.630578067E+01 -3.513160286E+01  3.200023440E+01  5.024076202E+01  1.056583668E-01  0.00000E+00  9.000E+00
      -2     1     1     2     0   511 -3.559188622E+00 -1.386864900E+01  1.635094162E+01  2.173385701E+01  0.000000000E+00  0.00000E+00  9.000E+00
#pdf   2 -2 0.12859054E-01 0.38288309E-02 0.91218087E+02 0.72652062E+00 0.82634653E+00
#rwgt            1           7   564.59530170376968         54217137    18527837           0
</event>
<event>
      6  10013  3.31628E+03  9.78259E-01 -1.00000E+00  6.68943E-01
      -2    -1     0     0     0   501  0.000000000E+00  0.000000000E+00  3.370867288E+02  3.370867288E+02  0.000000000E+00  0.00000E+00  9.000E+00
       2    -1     0     0   511     0  0.000000000E+00  0.000000000E+00 -1.698015583E+01  1.698015583E+01  0.000000000E+00  0.00000E+00  9.000E+00
      23     2     1     2     0     0  1.098833850E-02 -9.781976848E-01  3.309917128E+02  3.431378747E+02  9.048276127E+01  0.00000E+00  9.000E+00
      13     1     3     3     0     0  1.496939754E+01 -4.311546457E+01  1.765229671E+02  1.823277139E+02  1.056583668E-01  0.00000E+00  9.000E+00
     -13     1     3     3     0     0 -1.495840920E+01  4.213726688E+01  1.544687457E+02  1.608101608E+02  1.056583668E-01  0.00000E+00  9.000E+00
      21     1     1     2   511   501 -1.098833850E-02  9.781976848E-01 -1.088513980E+01  1.092901002E+01  4.298152060E-07  0.00000E+00  9.000E+00
#pdf  -2  2 0.51853092E-01 0.93426554E-03 0.90482761E+02 0.17562705E+00 0.15582050E+01
#rwgt            1           4   285.24373719726344         54217137    18527925           0
</event>
<event>
      6  10013  3.31628E+03  1.44595E+01 -1.00000E+00  1.78850E-01
       5    -1     0     0   501     0  0.000000000E+00  0.000000000E+00  7.678548380E-01  7.678548380E-01  0.000000000E+00  0.00000E+00  9.000E+00
      21    -1     0     0   511   501  0.000000000E+00  0.000000000E+00 -6.660357048E+02  6.660357048E+02  0.000000000E+00  0.00000E+00  9.000E+00
      23     2     1     2     0     0 -1.189198508E+01  8.225360123E+00 -5.187832114E+02  5.196070067E+02  2.542331876E+01  0.00000E+00  9.000E+00
      13     1     3     3     0     0  4.389240103E+00 -1.589685434E+00 -2.351924545E+01  2.397829433E+01  1.056583668E-01  0.00000E+00  9.000E+00
     -13     1     3     3     0     0 -1.628122518E+01  9.815045557E+00 -4.952639659E+02  4.956287124E+02  1.056583668E-01  0.00000E+00  9.000E+00
       5     1     1     2   511     0  1.189198508E+01 -8.225360123E+00 -1.464846386E+02  1.471965530E+02  0.000000000E+00  0.00000E+00  9.000E+00
#pdf   5 -5 0.55083085E-04 0.69431976E-01 0.25423319E+02 0.15988523E+01 0.22987528E-01
#rwgt            1          10   12.577591453656948         54217137    18528475           0
</event>
<event>
      6  10013  3.31628E+03  1.28494E+00 -1.00000E+00  5.04546E-01
       2    -1     0     0   501     0  0.000000000E+00  0.000000000E+00  7.364215148E+00  7.364215148E+00  0.000000000E+00  0.00000E+00  9.000E+00
      -2    -1     0     0     0   511  0.000000000E+00  0.000000000E+00 -2.740409530E+01  2.740409530E+01  0.000000000E+00  0.00000E+00  9.000E+00
      23     2     1     2     0     0 -1.274354019E+00 -1.645746393E-01 -9.046335481E+00  2.369992812E+01  2.186776953E+01  0.00000E+00  9.000E+00
      13     1     3     3     0     0  7.159161537E+00 -6.520131103E+00  1.667995344E-01  9.685282096E+00  1.056583668E-01  0.00000E+00  9.000E+00
     -13     1     3     3     0     0 -8.433515556E+00  6.355556464E+00 -9.213135015E+00  1.401464602E+01  1.056583668E-01  0.00000E+00  9.000E+00
      21     1     1     2   501   511  1.274354019E+00  1.645746393E-01 -1.099354467E+01  1.106838233E+01  1.192092896E-07  0.00000E+00  9.000E+00
#pdf   2 -2 0.11252585E-02 0.25146060E-02 0.21867770E+02 0.11163722E+01 0.78981439E+00
#rwgt            1           7   885.15907445307869         54217137    18528608           0
</event>
<event>
      6  10013  3.31628E+03  6.51154E+00 -1.00000E+00  2.20017E-01
       3    -1     0     0   511     0  0.000000000E+00  0.000000000E+00  2.154400729E+02  2.154400729E+02  0.000000000E+00  0.00000E+00  9.000E+00
      -3    -1     0     0     0   501  0.000000000E+00  0.000000000E+00 -3.062176745E+00  3.062176745E+00  0.000000000E+00  0.00000E+00  9.000E+00
      23     2     1     2     0     0  4.325704976E+00 -4.867073300E+00  1.850422798E+02  1.904017862E+02  4.438236966E+01  0.00000E+00  9.000E+00
      13     1     3     3     0     0 -1.258537240E+01 -9.407402006E+00  1.536897072E+02  1.544908673E+02  1.056583668E-01  0.00000E+00  9.000E+00
     -13     1     3     3     0     0  1.691107737E+01  4.540328705E+00  3.135257258E+01  3.591091887E+01  1.056583668E-01  0.00000E+00  9.000E+00
      21     1     1     2   511   501 -4.325704976E+00  4.867073300E+00  2.733561628E+01  2.810046341E+01  0.000000000E+00  0.00000E+00  9.000E+00
#pdf   3 -3 0.28574416E-01 0.40790301E-03 0.44382370E+02 0.24079308E+00 0.17078350E+01
#rwgt            1           8   68.018602671981810         54217137    18528783           0
</event>
<event>
      6  10013  3.31628E+03  4.39660E+00 -1.00000E+00  2.54057E-01
       2    -1     0     0   511     0  0.000000000E+00  0.000000000E+00  1.385883296E+03  1.385883296E+03  0.000000000E+00  0.00000E+00  9.000E+00
      -2    -1     0     0     0   501  0.000000000E+00  0.000000000E+00 -1.775844717E-01  1.775844717E-01  0.000000000E+00  0.00000E+00  9.000E+00
      23     2     1     2     0     0  4.281427764E+00  9.997392461E-01  1.187992565E+03  1.188298856E+03  2.661777671E+01  0.00000E+00  9.000E+00
      13     1     3     3     0     0  4.825232113E+00 -5.332686112E+00  1.116777316E+03  1.116800477E+03  1.056583668E-01  0.00000E+00  9.000E+00
     -13     1     3     3     0     0 -5.438043488E-01  6.332425359E+00  7.121524847E+01  7.149837839E+01  1.056583668E-01  0.00000E+00  9.000E+00
      21     1     1     2   511   501 -4.281427764E+00 -9.997392461E-01  1.977131470E+02  1.977620252E+02  3.814697266E-06  0.00000E+00  9.000E+00
#pdf   2 -2 0.18034799E+00 0.23245855E-04 0.26617777E+02 0.56030614E+00 0.37863734E+01
#rwgt            1           7   2415.5337348450653         54217137    18528873           0
</event>
<event>
      6  10013  3.31628E+03  2.68441E+00 -1.00000E+00  3.12173E-01
      -3    -1     0     0     0   501  0.000000000E+00  0.000000000E+00  1.708851652E+02  1.708851652E+02  0.000000000E+00  0.00000E+00  9.000E+00
       3    -1     0     0   511     0  0.000000000E+00  0.000000000E+00 -1.580862709E+01  1.580862709E+01  0.000000000E+00  0.00000E+00  9.000E+00
      23     2     1     2     0     0 -1.391592770E+00  2.295545348E+00  1.582772897E+02  1.825163684E+02  9.084777512E+01  0.00000E+00  9.000E+00
      13     1     3     3     0     0 -2.541588888E+01 -1.040146418E+01  1.522182545E+02  1.546756801E+02  1.056583668E-01  0.00000E+00  9.000E+00
     -13     1     3     3     0     0  2.402429611E+01  1.269700953E+01  6.059035278E+00  2.784068833E+01  1.056583668E-01  0.00000E+00  9.000E+00
      21     1     1     2   511   501  1.391592770E+00 -2.295545348E+00 -3.200751637E+00  4.177423838E+00  9.424321831E-08  0.00000E+00  9.000E+00
#pdf  -3  3 0.26203460E-01 0.18637311E-02 0.90847775E+02 0.26392478E+00 0.10889576E+01
#rwgt            1           3   301.72827130187335         54217137    18528965           0
</event>
<event>
      6  10013  3.31628E+03  2.82078E+00 -1.00000E+00  3.05082E-01
       2    -1     0     0   501     0  0.000000000E+00  0.000000000E+00  2.600676392E+03  2.600676392E+03  0.000000000E+00  0.00000E+00  9.000E+00
      -2    -1     0     0     0   511  0.000000000E+00  0.000000000E+00 -8.645581197E-01  8.645581197E-01  0.000000000E+00  0.00000E+00  9.000E+00
      23     2     1     2     0     0  2.627157539E+00 -1.027042341E+00  2.536833718E+03  2.538499695E+03  9.190991100E+01  0.00000E+00  9.000E+00
      13     1     3     3     0     0  7.107859296E-02 -9.812012860E+00  2.512238198E+03  2.512257362E+03  1.056583668E-01  0.00000E+00  9.000E+00
     -13     1     3     3     0     0  2.556078946E+00  8.784970519E+00  2.459552006E+01  2.624233254E+01  1.056583668E-01  0.00000E+00  9.000E+00
      21     1     1     2   501   511 -2.627157539E+00  1.027042341E+00  6.297811605E+01  6.304125534E+01  6.743495762E-07  0.00000E+00  9.000E+00
#pdf   2 -2 0.39022653E+00 0.12809176E-03 0.91909911E+02 0.21959766E+00 0.31274031E+01
#rwgt            1           7   7855.9434156919360         54217137    18529124           0
</event>
<event>
      6  10013  3.31628E+03  1.81521E+01 -1.00000E+00  1.69876E-01
      -5    -1     0     0     0   501  0.000000000E+00  0.000000000E+00  7.062431344E+00  7.062431344E+00  0.000000000E+00  0.00000E+00  9.000E+00
      21    -1     0     0   501   511  0.000000000E+00  0.000000000E+00 -4.954071244E+02  4.954071244E+02  0.000000000E+00  0.00000E+00  9.000E+00
      23     2     1     2     0     0 -5.420369036E+00 -1.732394252E+01 -4.577682337E+02  4.669108824E+02  9.013610213E+01  0.00000E+00  9.000E+00
      13     1     3     3     0     0  3.969572578E+01 -8.307246970E+00 -2.946632763E+02  2.974411178E+02  1.056583668E-01  0.00000E+00  9.000E+00
     -13     1     3     3     0     0 -4.511609482E+01 -9.016695553E+00 -1.631049575E+02  1.694697646E+02  1.056583668E-01  0.00000E+00  9.000E+00
      -5     1     1     2     0   511  5.420369036E+00  1.732394252E+01 -3.057645933E+01  3.555867334E+01  0.000000000E+00  0.00000E+00  9.000E+00
#pdf  -5  5 0.68943910E-03 0.69729240E-01 0.90136102E+02 0.10152399E+01 0.30893808E-01
#rwgt            1           1   63.162475701574202         54217137    18529277           0
</event>
<event>
      6  10013  3.31628E+03  4.09030E+01 -1.00000E+00  1.44210E-01
       1    -1     0     0   501     0  0.000000000E+00  0.000000000E+00  4.643601586E+01  4.643601586E+01  0.000000000E+00  0.00000E+00  9.000E+00
      -1    -1     0     0     0   511  0.000000000E+00  0.000000000E+00 -1.049747138E+02  1.049747138E+02  0.000000000E+00  0.00000E+00  9.000E+00
      23     2     1     2     0     0 -1.202787243E+01  3.909452925E+01 -2.682207051E+01  9.965170738E+01  8.682158363E+01  0.00000E+00  9.000E+00
      13     1     3     3     0     0  2.319002206E+01  2.601827002E+01 -4.580778343E+01  5.755946216E+01  1.056583668E-01  0.00000E+00  9.000E+00
     -13     1     3     3     0     0 -3.521789450E+01  1.307625923E+01  1.898571292E+01  4.209224521E+01  1.056583668E-01  0.00000E+00  9.000E+00
      21     1     1     2   501   511  1.202787243E+01 -3.909452925E+01 -3.171662745E+01  5.175902230E+01  6.743495762E-07  0.00000E+00  9.000E+00
#pdf   1 -1 0.50680183E-02 0.88009697E-02 0.86821584E+02 0.83759621E+00 0.57314524E+00
#rwgt            1           6   421.22893561538575         54217137    18529517           0
</event>
<event>
      6  10013  3.31628E+03  5.30330E+01 -1.00000E+00  1.37604E-01
       2    -1     0     0   501     0  0.000000000E+00  0.000000000E+00  8.901097431E+02  8.901097431E+02  0.000000000E+00  0.00000E+00  9.000E+00
      21    -1     0     0   511   501  0.000000000E+00  0.000000000E+00 -2.403654977E+01  2.403654977E+01  0.000000000E+00  0.00000E+00  9.000E+00
      23     2     1     2     0     0 -7.443131012E+00  5.250803386E+01  9.869514151E+01  1.449378892E+02  9.194436881E+01  0.00000E+00  9.000E+00
      13     1     3     3     0     0  3.693759391E+01  4.922986672E+01  5.424976125E+01  8.204275336E+01  1.056583668E-01  0.00000E+00  9.000E+00
     -13     1     3     3     0     0 -4.438072492E+01  3.278167141E+00  4.444538027E+01  6.289513586E+01  1.056583668E-01  0.00000E+00  9.000E+00
       2     1     1     2   511     0  7.443131012E+00 -5.250803386E+01  7.673780518E+02  7.692084036E+02  0.000000000E+00  0.00000E+00  9.000E+00
#pdf   2 -2 0.16234094E-01 0.30813109E-02 0.91944369E+02 0.69955959E+00 0.91030955E+00
#rwgt            1           7   683.48247385923185         54217137    18529555           0
</event>
<event>
      6  10013  3.31628E+03  6.88397E+01 -1.00000E+00  1.31564E-01
      21    -1     0     0   511   501  0.000000000E+00  0.000000000E+00  9.709688641E+00  9.709688641E+00  0.000000000E+00  0.00000E+00  9.000E+00
       2    -1     0     0   501     0  0.000000000E+00  0.000000000E+00 -1.059752766E+03  1.059752766E+03  0.000000000E+00  0.00000E+00  9.000E+00
      23     2     1     2     0     0  6.390244913E+01  2.560028323E+01 -8.610951478E+02  8.683649221E+02  8.850924735E+01  0.00000E+00  9.000E+00
      13     1     3     3     0     0  4.160380046E+01  5.724669295E+01 -4.608494603E+02  4.662513231E+02  1.056583668E-01  0.00000E+00  9.000E+00
     -13     1     3     3     0     0  2.229864867E+01 -3.164640971E+01 -4.002456875E+02  4.021135990E+02  1.056583668E-01  0.00000E+00  9.000E+00
       2     1     1     2   511     0 -6.390244913E+01 -2.560028323E+01 -1.889479295E+02  2.010975325E+02  0.000000000E+00  0.00000E+00  9.000E+00
#pdf  -2  2 0.44141846E-03 0.10501228E+00 0.88509247E+02 0.19748637E+01 0.59892360E+00
#rwgt            1           4   1465.2603104695468         54217137    18529603           0
</event>
<event>
      6  10013  3.31628E+03  1.08727E+01 -1.00000E+00  1.91592E-01
      -2    -1     0     0     0   501  0.000000000E+00  0.000000000E+00  5.449450714E+01  5.449450714E+01  0.000000000E+00  0.00000E+00  9.000E+00
       2    -1     0     0   511     0  0.000000000E+00  0.000000000E+00 -3.676709247E+01  3.676709247E+01  0.000000000E+00  0.00000E+00  9.000E+00
      23     2     1     2     0     0 -1.086807837E+01  3.166142401E-01  3.185383579E+01  7.343546303E+01  6.526779453E+01  0.00000E+00  9.000E+00
      13     1     3     3     0     0 -4.902537187E+00  3.270570355E+01  1.852677237E+01  3.790712827E+01  1.056583668E-01  0.00000E+00  9.000E+00
     -13     1     3     3     0     0 -5.965541179E+00 -3.238908931E+01  1.332706342E+01  3.552833476E+01  1.056583668E-01  0.00000E+00  9.000E+00
      21     1     1     2   511   501  1.086807837E+01 -3.166142401E-01 -1.412642112E+01  1.782613658E+01  1.685873940E-07  0.00000E+00  9.000E+00
#pdf  -2  2 0.79890835E-02 0.31551078E-02 0.65267795E+02 0.56822109E+00 0.99667757E+00
#rwgt            1           4   1249.2745028449629         54217137    18529653           0
</event>
<event>
      6  10013  3.31628E+03  1.48788E+01 -1.00000E+00  1.77668E-01
      -2    -1     0     0     0   501  0.000000000E+00  0.000000000E+00  4.961946473E+00  4.961946473E+00  0.000000000E+00  0.00000E+00  9.000E+00
       2    -1     0     0   511     0  0.000000000E+00  0.000000000E+00 -6.362574497E+02  6.362574497E+02  0.000000000E+00  0.00000E+00  9.000E+00
      23     2     1     2     0     0 -4.093382332E+00  1.430465376E+01 -5.348303896E+02  5.436135713E+02  9.618102924E+01  0.00000E+00  9.000E+00
      13     1     3     3     0     0 -4.333122492E+01 -2.139731031E+00 -3.970751735E+02  3.994382031E+02  1.056583668E-01  0.00000E+00  9.000E+00
     -13     1     3     3     0     0  3.923784259E+01  1.644438479E+01 -1.377552161E+02  1.441753682E+02  1.056583668E-01  0.00000E+00  9.000E+00
      21     1     1     2   511   501  4.093382332E+00 -1.430465376E+01 -9.646511363E+01  9.760582486E+01  1.348699152E-06  0.00000E+00  9.000E+00
#pdf  -2  2 0.66768745E-03 0.81982079E-01 0.96181029E+02 0.17123286E+01 0.61424770E+00
#rwgt            1           4   1781.1546566303894         54217137    18529728           0
</event>
<event>
      6  10013  3.31628E+03  2.29514E+00 -1.00000E+00  3.37115E-01
       2    -1     0     0   511     0  0.000000000E+00  0.000000000E+00  9.926871300E-01  9.926871300E-01  0.000000000E+00  0.00000E+00  9.000E+00
      -2    -1     0     0     0   501  0.000000000E+00  0.000000000E+00 -1.374552426E+02  1.374552426E+02  0.000000000E+00  0.00000E+00  9.000E+00
      23     2     1     2     0     0  1.063963940E+00 -2.033624296E+00 -1.255007226E+02  1.272484017E+02  2.089154682E+01  0.00000E+00  9.000E+00
      13     1     3     3     0     0 -7.070662761E+00  5.777916030E+00 -7.162723261E+01  7.220699551E+01  1.056583668E-01  0.00000E+00  9.000E+00
     -13     1     3     3     0     0  8.134626701E+00 -7.811540326E+00 -5.387348997E+01  5.504140623E+01  1.056583668E-01  0.00000E+00  9.000E+00
      21     1     1     2   511   501 -1.063963940E+00  2.033624296E+00 -1.096183291E+01  1.119952801E+01  1.685873940E-07  0.00000E+00  9.000E+00
#pdf   2 -2 0.13363286E-03 0.19325966E-01 0.20891547E+02 0.20695692E+01 0.33115597E+00
#rwgt            1           7   751.19257844839956         54217137    18529807           0
</event>
<event>
      6  10013  3.31628E+03  7.63384E+00 -1.00000E+00  2.10299E-01
       1    -1     0     0   501     0  0.000000000E+00  0.000000000E+00  1.573923855E+03  1.573923855E+03  0.000000000E+00  0.00000E+00  9.000E+00
      -1    -1     0     0     0   511  0.000000000E+00  0.000000000E+00 -1.616342649E+00  1.616342649E+00  0.000000000E+00  0.00000E+00  9.000E+00
      23     2     1     2     0     0  2.780849866E+00 -7.109314605E+00  1.502363417E+03  1.505180750E+03  9.173317946E+01  0.00000E+00  9.000E+00
      13     1     3     3     0     0  4.392635933E+01  1.093305557E-01  1.042131355E+03  1.043056715E+03  1.056583668E-01  0.00000E+00  9.000E+00
     -13     1     3     3     0     0 -4.114550946E+01 -7.218645160E+00  4.602320619E+02  4.621240351E+02  1.056583668E-01  0.00000E+00  9.000E+00
      21     1     1     2   501   511 -2.780849866E+00  7.109314605E+00  6.994409523E+01  7.035944811E+01  1.348699152E-06  0.00000E+00  9.000E+00
#pdf   1 -1 0.23055262E+00 0.21597135E-03 0.91733179E+02 0.19685683E+00 0.25951922E+01
#rwgt            1           6   1475.3124036021652         54217137    18529905           0
</event>
<event>
      6  10013  3.31628E+03  2.74801E+01 -1.00000E+00  1.55698E-01
      21    -1     0     0   511   501  0.000000000E+00  0.000000000E+00  6.289008364E+01  6.289008364E+01  0.000000000E+00  0.00000E+00  9.000E+00
       2    -1     0     0   501     0  0.000000000E+00  0.000000000E+00 -6.993761707E+01  6.993761707E+01  0.000000000E+00  0.00000E+00  9.000E+00
      23     2     1     2     0     0  1.562042958E+01 -2.260883348E+01 -2.560339603E+01  9.966933513E+01  9.232164050E+01  0.00000E+00  9.000E+00
      13     1     3     3     0     0  1.280838047E+01 -3.473536040E+01  2.686644518E+01  4.574294386E+01  1.056583668E-01  0.00000E+00  9.000E+00
     -13     1     3     3     0     0  2.812049112E+00  1.212652692E+01 -5.246984121E+01  5.392639127E+01  1.056583668E-01  0.00000E+00  9.000E+00
       2     1     1     2   511     0 -1.562042958E+01  2.260883348E+01  1.855586260E+01  3.315836559E+01  0.000000000E+00  0.00000E+00  9.000E+00
#pdf  -2  2 0.54606099E-02 0.92358988E-02 0.92321641E+02 0.70348962E+00 0.77656419E+00
#rwgt            1           4   429.92398239378088         54217137    18529958           0
</event>
<event>
      6  10013  3.31628E+03  1.72645E+00 -1.00000E+00  3.95510E-01
      -1    -1     0     0     0   501  0.000000000E+00  0.000000000E+00  4.498350006E+02  4.498350006E+02  0.000000000E+00  0.00000E+00  9.000E+00
      21    -1     0     0   501   511  0.000000000E+00  0.000000000E+00 -5.665957259E+00  5.665957259E+00  0.000000000E+00  0.00000E+00  9.000E+00
      23     2     1     2     0     0 -7.788663687E-01  1.540778768E+00  4.439305674E+02  4.537581145E+02  9.391004841E+01  0.00000E+00  9.000E+00
      13     1     3     3     0     0 -1.226072664E+01  3.761192745E+01  9.682989536E+01  1.045993418E+02  1.056583668E-01  0.00000E+00  9.000E+00
     -13     1     3     3     0     0  1.148186027E+01 -3.607114868E+01  3.471006720E+02  3.491587727E+02  1.056583668E-01  0.00000E+00  9.000E+00
      -1     1     1     2     0   511  7.788663687E-01 -1.540778768E+00  2.384759146E-01  1.742843307E+00  0.000000000E+00  0.00000E+00  9.000E+00
#pdf  -1  1 0.69041309E-01 0.75583745E-03 0.93910048E+02 0.16550910E+00 0.16706073E+01
#rwgt            1           5   629.48705774695361         54217137    18530038           0
</event>
<event>
      6  10013  3.31628E+03  2.55533E+00 -1.00000E+00  3.19584E-01
      -2    -1     0     0     0   501  0.000000000E+00  0.000000000E+00  3.889503154E+01  3.889503154E+01  0.000000000E+00  0.00000E+00  9.000E+00
      21    -1     0     0   501   511  0.000000000E+00  0.000000000E+00 -5.620170588E+01  5.620170588E+01  0.000000000E+00  0.00000E+00  9.000E+00
      23     2     1     2     0     0  3.826328744E-01  2.526519563E+00 -1.348721141E+01  9.050130425E+01  8.945418654E+01  0.00000E+00  9.000E+00
      13     1     3     3     0     0  5.583651316E-01  4.400624549E+01 -2.029866564E+01  4.846553832E+01  1.056583668E-01  0.00000E+00  9.000E+00
     -13     1     3     3     0     0 -1.757322572E-01 -4.147972593E+01  6.811454222E+00  4.203576593E+01  1.056583668E-01  0.00000E+00  9.000E+00
      -2     1     1     2     0   511 -3.826328744E-01 -2.526519563E+00 -3.819462923E+00  4.595433172E+00  0.000000000E+00  0.00000E+00  9.000E+00
#pdf  -2  2 0.59217454E-02 0.79958549E-02 0.89454187E+02 0.67508811E+00 0.80055083E+00
#rwgt            1           4   517.18525066351788         54217137    18530184           0
</event>
<event>
      6  10013  3.31628E+03  1.14002E+01 -1.00000E+00  1.89346E-01
       2    -1     0     0   501     0  0.000000000E+00  0.000000000E+00  4.361988841E+01  4.361988841E+01  0.000000000E+00  0.00000E+00  9.000E+00
      -2    -1     0     0     0   511  0.000000000E+00  0.000000000E+00 -6.904858834E+01  6.904858834E+01  0.000000000E+00  0.00000E+00  9.000E+00
      23     2     1     2     0     0  1.139513875E+01  3.403589569E-01 -1.911554893E+01  9.963694166E+01  9.711926123E+01  0.00000E+00  9.000E+00
      13     1     3     3     0     0 -1.590466999E+01 -3.691188900E+01  1.426814648E+01  4.265017286E+01  1.056583668E-01  0.00000E+00  9.000E+00
     -13     1     3     3     0     0  2.729980874E+01  3.725224796E+01 -3.338369541E+01  5.698676880E+01  1.056583668E-01  0.00000E+00  9.000E+00
      21     1     1     2   501   511 -1.139513875E+01 -3.403589569E-01 -6.313151007E+00  1.303153510E+01  1.460009660E-07  0.00000E+00  9.000E+00
#pdf   2 -2 0.61517162E-02 0.90725160E-02 0.97119261E+02 0.86011960E+00 0.55135081E+00
#rwgt            1           7   501.64805085536949         54217137    18530508           0
</event>
<event>
      6  10013  3.31628E+03  4.48071E+00 -1.00000E+00  2.52274E-01
      21    -1     0     0   511   501  0.000000000E+00  0.000000000E+00  1.794920297E+02  1.794920297E+02  0.000000000E+00  0.00000E+00  9.000E+00
       1    -1     0     0   501     0  0.000000000E+00  0.000000000E+00 -1.361511755E+01  1.361511755E+01  0.000000000E+00  0.00000E+00  9.000E+00
      23     2     1     2     0     0  4.305263149E+00  1.241544213E+00  1.439365054E+02  1.707138855E+02  9.168116708E+01  0.00000E+00  9.000E+00
      13     1     3     3     0     0  2.124737120E+01  2.331818377E+01  8.813212355E+00  3.275473023E+01  1.056583668E-01  0.00000E+00  9.000E+00
     -13     1     3     3     0     0 -1.694210805E+01 -2.207663955E+01  1.351232930E+02  1.379591553E+02  1.056583668E-01  0.00000E+00  9.000E+00
       1     1     1     2   511     0 -4.305263149E+00 -1.241544213E+00  2.194040681E+01  2.239326180E+01  0.000000000E+00  0.00000E+00  9.000E+00
#pdf  -1  1 0.24175022E-01 0.20573429E-02 0.91681167E+02 0.34072373E+00 0.11560029E+01
#rwgt            1           5   684.32158047728467         54217137    18530569           0
</event>
<event>
      6  10013  3.31628E+03  3.28021E+01 -1.00000E+00  1.50360E-01
      21    -1     0     0   501   511  0.000000000E+00  0.000000000E+00  2.347301437E+01  2.347301437E+01  0.000000000E+00  0.00000E+00  9.000E+00
      -2    -1     0     0     0   501  0.000000000E+00  0.000000000E+00 -1.685736312E+02  1.685736312E+02  0.000000000E+00  0.00000E+00  9.000E+00
      23     2     1     2     0     0 -1.688149917E+01 -2.812456776E+01 -1.004514954E+02  1.366433932E+02  8.663104327E+01  0.00000E+00  9.000E+00
      13     1     3     3     0     0 -5.133098283E+01 -2.696161910E+01 -6.709870853E+01  8.867945959E+01  1.056583668E-01  0.00000E+00  9.000E+00
     -13     1     3     3     0     0  3.444948366E+01 -1.162948657E+00 -3.335278689E+01  4.796393365E+01  1.056583668E-01  0.00000E+00  9.000E+00
      -2     1     1     2     0   511  1.688149917E+01  2.812456776E+01 -4.464912144E+01  5.540325235E+01  0.000000000E+00  0.00000E+00  9.000E+00
#pdf   2 -2 0.26036031E-02 0.17056331E-01 0.86631043E+02 0.10952221E+01 0.38811776E+00
#rwgt            1           7   367.71398153182940         54217137    18530847           0
</event>
<event>
      6  10013  3.31628E+03  1.57670E+01 -1.00000E+00  1.75321E-01
      -1    -1     0     0     0   501  0.000000000E+00  0.000000000E+00  1.916328121E+02  1.916328121E+02  0.000000000E+00  0.00000E+00  9.000E+00
       1    -1     0     0   511     0  0.000000000E+00  0.000000000E+00 -2.123617125E+01  2.123617125E+01  0.000000000E+00  0.00000E+00  9.000E+00
      23     2     1     2     0     0 -1.464314752E+01  5.845948650E+00  1.735639892E+02  1.967870376E+02  9.138973112E+01  0.00000E+00  9.000E+00
      13     1     3     3     0     0 -1.103984620E+01 -4.264724379E+01  7.897783535E+01  9.043326405E+01  1.056583668E-01  0.00000E+00  9.000E+00
     -13     1     3     3     0     0 -3.603301320E+00  4.849319244E+01  9.458615382E+01  1.063537736E+02  1.056583668E-01  0.00000E+00  9.000E+00
      21     1     1     2   511   501  1.464314752E+01 -5.845948650E+00 -3.167348272E+00  1.608194577E+01  2.493441184E-07  0.00000E+00  9.000E+00
#pdf  -1  1 0.28073801E-01 0.17603819E-02 0.91389731E+02 0.31221216E+00 0.12224094E+01
#rwgt            1           5   497.76663735929100         54217137    18530935           0
</event>
<event>
      6  10013  3.31628E+03  4.30777E+00 -1.00000E+00  2.56007E-01
       4    -1     0     0   511     0  0.000000000E+00  0.000000000E+00  2.545587540E+02  2.545587540E+02  0.000000000E+00  0.00000E+00  9.000E+00
      -4    -1     0     0     0   501  0.000000000E+00  0.000000000E+00 -1.819488628E+01  1.819488628E+01  0.000000000E+00  0.00000E+00  9.000E+00
      23     2     1     2     0     0 -4.225725776E+00  8.367251521E-01  9.813768534E+01  1.344603492E+02  9.181515862E+01  0.00000E+00  9.000E+00
      13     1     3     3     0     0 -3.123281465E+01 -3.343554097E+01  3.451601361E+01  5.731309161E+01  1.056583668E-01  0.00000E+00  9.000E+00
     -13     1     3     3     0     0  2.700708887E+01  3.427226612E+01  6.362167173E+01  7.714725758E+01  1.056583668E-01  0.00000E+00  9.000E+00
      21     1     1     2   511   501  4.225725776E+00 -8.367251521E-01  1.382261823E+02  1.382932910E+02  1.907348633E-06  0.00000E+00  9.000E+00
#pdf   4 -4 0.17872496E-01 0.27909809E-02 0.91815159E+02 0.22966037E+00 0.72818485E+00
#rwgt            1           9   170.24570189446209         54217137    18531035           0
</event>
<event>
      6  10013  3.31628E+03  1.71078E+01 -1.00000E+00  1.72123E-01
      21    -1     0     0   511   501  0.000000000E+00  0.000000000E+00  1.236236400E+00  1.236236400E+00  0.000000000E+00  0.00000E+00  9.000E+00
       2    -1     0     0   501     0  0.000000000E+00  0.000000000E+00 -2.637284137E+03  2.637284137E+03  0.000000000E+00  0.00000E+00  9.000E+00
      23     2     1     2     0     0  2.519327223E+00 -1.692130082E+01 -2.423514003E+03  2.425299045E+03  9.144755606E+01  0.00000E+00  9.000E+00
      13     1     3     3     0     0  3.280173286E+00  2.877701152E+01 -1.748322720E+03  1.748562615E+03  1.056583668E-01  0.00000E+00  9.000E+00
     -13     1     3     3     0     0 -7.608460628E-01 -4.569831235E+01 -6.751912834E+02  6.767364295E+02  1.056583668E-01  0.00000E+00  9.000E+00
       2     1     1     2   511     0 -2.519327223E+00  1.692130082E+01 -2.125338975E+02  2.132213287E+02  0.000000000E+00  0.00000E+00  9.000E+00
#pdf  -2  2 0.13496936E-03 0.36662519E+00 0.91447556E+02 0.30661467E+01 0.24998514E+00
#rwgt            1           4   9643.8972417811328         54217137    18531296           0
</event>
<event>
      6  10013  3.31628E+03  5.35118E+00 -1.00000E+00  2.33394E-01
       2    -1     0     0   501     0  0.000000000E+00  0.000000000E+00  5.780081454E+02  5.780081454E+02  0.000000000E+00  0.00000E+00  9.000E+00
      -2    -1     0     0     0   511  0.000000000E+00  0.000000000E+00 -8.427404799E-01  8.427404799E-01  0.000000000E+00  0.00000E+00  9.000E+00
      23     2     1     2     0     0 -4.456692250E+00  2.961933145E+00  5.568279607E+02  5.578212213E+02  3.284055413E+01  0.00000E+00  9.000E+00
      13     1     3     3     0     0 -2.440028582E+00 -1.217834861E+01  4.125589402E+02  4.127458737E+02  1.056583668E-01  0.00000E+00  9.000E+00
     -13     1     3     3     0     0 -2.016663668E+00  1.514028176E+01  1.442690204E+02  1.450753476E+02  1.056583668E-01  0.00000E+00  9.000E+00
      21     1     1     2   501   511  4.456692250E+00 -2.961933145E+00  2.033744430E+01  2.102966463E+01  5.331201500E-07  0.00000E+00  9.000E+00
#pdf   2 -2 0.84626156E-01 0.75410120E-04 0.32840554E+02 0.62437883E+00 0.28354673E+01
#rwgt            1           7   1957.0785930774764         54217137    18531367           0
</event>
<event>
      6  10013  3.31628E+03  7.03289E+00 -1.00000E+00  2.15195E-01
       1    -1     0     0   511     0  0.000000000E+00  0.000000000E+00  1.278646755E+03  1.278646755E+03  0.000000000E+00  0.00000E+00  9.000E+00
      -1    -1     0     0     0   501  0.000000000E+00  0.000000000E+00 -1.980817476E+00  1.980817476E+00  0.000000000E+00  0.00000E+00  9.000E+00
      23     2     1     2     0     0 -1.846069827E+00  6.786279317E+00  1.077718472E+03  1.081555837E+03  9.075496428E+01  0.00000E+00  9.000E+00
      13     1     3     3     0     0  2.046040898E+01 -3.241551861E+00  9.969617853E+02  9.971769895E+02  1.056583668E-01  0.00000E+00  9.000E+00
     -13     1     3     3     0     0 -2.230647881E+01  1.002783118E+01  8.075668631E+01  8.437884772E+01  1.056583668E-01  0.00000E+00  9.000E+00
      21     1     1     2   511   501  1.846069827E+00 -6.786279317E+00  1.989474662E+02  1.990717355E+02  3.814697266E-06  0.00000E+00  9.000E+00
#pdf   1 -1 0.16560153E+00 0.29429963E-03 0.90754964E+02 0.27291008E+00 0.23130204E+01
#rwgt            1           6   1153.7907481666878         54217137    18531466           0
</event>
<event>
      6  10013  3.31628E+03  1.48669E+01 -1.00000E+00  1.77701E-01
      21    -1     0     0   501   511  0.000000000E+00  0.000000000E+00  2.820349987E+01  2.820349987E+01  0.000000000E+00  0.00000E+00  9.000E+00
      -4    -1     0     0     0   501  0.000000000E+00  0.000000000E+00 -1.715387066E+01  1.715387066E+01  0.000000000E+00  0.00000E+00  9.000E+00
      23     2     1     2     0     0 -1.482805220E+01  1.073710751E+00  3.348670938E+00  2.861434974E+01  2.421865866E+01  0.00000E+00  9.000E+00
      13     1     3     3     0     0 -1.615656683E+01  9.900673664E+00 -3.477602943E-01  1.895231099E+01  1.056583668E-01  0.00000E+00  9.000E+00
     -13     1     3     3     0     0  1.328514632E+00 -8.826962913E+00  3.696431232E+00  9.662038757E+00  1.056583668E-01  0.00000E+00  9.000E+00
      -4     1     1     2     0   511  1.482805220E+01 -1.073710751E+00  7.700958267E+00  1.674302079E+01  0.000000000E+00  0.00000E+00  9.000E+00
#pdf   4 -4 0.20953914E-02 0.16563355E-02 0.24218659E+02 0.61970238E+00 0.68426960E+00
#rwgt            1           9   415.69485679663006         54217137    18531579           0
</event>
<event>
      6  10013  3.31628E+03  2.59432E+01 -1.00000E+00  1.57518E-01
      21    -1     0     0   511   501  0.000000000E+00  0.000000000E+00  8.857465097E-01  8.857465097E-01  0.000000000E+00  0.00000E+00  9.000E+00
       2    -1     0     0   501     0  0.000000000E+00  0.000000000E+00 -1.224873461E+03  1.224873461E+03  0.000000000E+00  0.00000E+00  9.000E+00
      23     2     1     2     0     0  1.989007057E+01  1.665644052E+01 -5.207954191E+02  5.220885060E+02  2.599014401E+01  0.00000E+00  9.000E+00
      13     1     3     3     0     0  5.926380235E+00  1.790476316E+01 -4.063660798E+02  4.068035207E+02  1.056583668E-01  0.00000E+00  9.000E+00
     -13     1     3     3     0     0  1.396369034E+01 -1.248322642E+00 -1.144293393E+02  1.152849852E+02  1.056583668E-01  0.00000E+00  9.000E+00
       2     1     1     2   511     0 -1.989007057E+01 -1.665644052E+01 -7.031922954E+02  7.036707016E+02  0.000000000E+00  0.00000E+00  9.000E+00
#pdf  -2  2 0.70398142E-04 0.56776612E-01 0.25990144E+02 0.26848605E+01 0.62795210E+00
#rwgt            1           4   1555.8217783582588         54217137    18531641           0
</event>
<event>
      6  10013  3.31628E+03  4.65488E+00 -1.00000E+00  2.48766E-01
      -3    -1     0     0     0   501  0.000000000E+00  0.000000000E+00  2.829958619E+01  2.829958619E+01  0.000000000E+00  0.00000E+00  9.000E+00
      21    -1     0     0   501   511  0.000000000E+00  0.000000000E+00 -1.094069483E+02  1.094069483E+02  0.000000000E+00  0.00000E+00  9.000E+00
      23     2     1     2     0     0 -4.654443787E+00  6.354896751E-02 -3.919046572E+01  9.553196766E+01  8.699882962E+01  0.00000E+00  9.000E+00
      13     1     3     3     0     0 -3.142933383E+01  2.660163555E+01 -4.057477145E+01  5.780807281E+01  1.056583668E-01  0.00000E+00  9.000E+00
     -13     1     3     3     0     0  2.677489005E+01 -2.653808659E+01  1.384305729E+00  3.772389485E+01  1.056583668E-01  0.00000E+00  9.000E+00
      -3     1     1     2     0   511  4.654443787E+00 -6.354896751E-02 -4.191689641E+01  4.217456686E+01  0.000000000E+00  0.00000E+00  9.000E+00
#pdf  -3  3 0.43277714E-02 0.10348462E-01 0.86998830E+02 0.74451589E+00 0.47805454E+00
#rwgt            1           3   416.52337883231269         54217137    18531709           0
</event>
<event>
      6  10013  3.31628E+03  1.91939E+00 -1.00000E+00  3.71393E-01
       2    -1     0     0   501     0  0.000000000E+00  0.000000000E+00  1.908836314E+03  1.908836314E+03  0.000000000E+00  0.00000E+00  9.000E+00
      21    -1     0     0   511   501  0.000000000E+00  0.000000000E+00 -1.237474324E+00  1.237474324E+00  0.000000000E+00  0.00000E+00  9.000E+00
      23     2     1     2     0     0  3.723812866E-01  1.882925548E+00  1.900791481E+03  1.903001009E+03  9.165643264E+01  0.00000E+00  9.000E+00
      13     1     3     3     0     0 -3.468233856E+00 -4.084896477E+01  1.315711002E+03  1.316349542E+03  1.056583668E-01  0.00000E+00  9.000E+00
     -13     1     3     3     0     0  3.840615143E+00  4.273189031E+01  5.850804792E+02  5.866514664E+02  1.056583668E-01  0.00000E+00  9.000E+00
       2     1     1     2   511     0 -3.723812866E-01 -1.882925548E+00  6.807358957E+00  7.072779681E+00  0.000000000E+00  0.00000E+00  9.000E+00
#pdf   2 -2 0.29253529E+00 0.16992643E-03 0.91656433E+02 0.35472025E+00 0.28250333E+01
#rwgt            1           7   1979.9734560204022         54217137    18531833           0
</event>
<event>
      6  10013  3.31628E+03  5.75963E+00 -1.00000E+00  2.28185E-01
      -1    -1     0     0     0   511  0.000000000E+00  0.000000000E+00  4.114117674E-01  4.114117674E-01  0.000000000E+00  0.00000E+00  9.000E+00
       1    -1     0     0   501     0  0.000000000E+00  0.000000000E+00 -7.479302193E+02  7.479302193E+02  0.000000000E+00  0.00000E+00  9.000E+00
      23     2     1     2     0     0 -2.903284739E+00  4.974363845E+00 -6.889579155E+02  6.894981825E+02  2.667510168E+01  0.00000E+00  9.000E+00
      13     1     3     3     0     0 -9.229062129E+00  1.324932595E+01 -3.376512830E+02  3.380371582E+02  1.056583668E-01  0.00000E+00  9.000E+00
     -13     1     3     3     0     0  6.325777390E+00 -8.274962110E+00 -3.513066324E+02  3.514610243E+02  1.056583668E-01  0.00000E+00  9.000E+00
      21     1     1     2   501   511  2.903284739E+00 -4.974363845E+00 -5.856089203E+01  5.884344852E+01  1.168007728E-06  0.00000E+00  9.000E+00
#pdf  -1  1 0.40622861E-04 0.10364658E+00 0.26675102E+02 0.32067333E+01 0.37578651E+00
#rwgt            1           5   283.16602122525046         54217137    18531927           0
</event>
<event>
      6  10013  3.31628E+03  2.62575E+01 -1.00000E+00  1.57134E-01
       1    -1     0     0   501     0  0.000000000E+00  0.000000000E+00  1.538131667E+03  1.538131667E+03  0.000000000E+00  0.00000E+00  9.000E+00
      21    -1     0     0   511   501  0.000000000E+00  0.000000000E+00 -2.441774774E+00  2.441774774E+00  0.000000000E+00  0.00000E+00  9.000E+00
      23     2     1     2     0     0  2.568431679E+01 -5.456154468E+00  1.216106165E+03  1.219912854E+03  9.264833194E+01  0.00000E+00  9.000E+00
      13     1     3     3     0     0  4.927865177E+01 -6.556276394E+00  1.114063741E+03  1.115172363E+03  1.056583668E-01  0.00000E+00  9.000E+00
     -13     1     3     3     0     0 -2.359433498E+01  1.100121926E+00  1.020424246E+02  1.047404912E+02  1.056583668E-01  0.00000E+00  9.000E+00
       1     1     1     2   511     0 -2.568431679E+01  5.456154468E+00  3.195837275E+02  3.206605880E+02  0.000000000E+00  0.00000E+00  9.000E+00
#pdf   1 -1 0.18028553E+00 0.28172645E-03 0.92648332E+02 0.25425403E+00 0.23603300E+01
#rwgt            1           6   1278.6377631092109         54217137    18531987           0
</event>
<event>
      6  10013  3.31628E+03  9.08289E+00 -1.00000E+00  2.00652E-01
      -2    -1     0     0     0   501  0.000000000E+00  0.000000000E+00  2.729779757E+02  2.729779757E+02  0.000000000E+00  0.00000E+00  9.000E+00
       2    -1     0     0   511     0  0.000000000E+00  0.000000000E+00 -1.226795201E+01  1.226795201E+01  0.000000000E+00  0.00000E+00  9.000E+00
      23     2     1     2     0     0 -2.334512485E+00 -8.777756649E+00  2.595879424E+02  2.760939865E+02  9.359215039E+01  0.00000E+00  9.000E+00
      13     1     3     3     0     0 -3.180742398E+01 -1.711252882E+01  3.810369683E+01  5.250194033E+01  1.056583668E-01  0.00000E+00  9.000E+00
     -13     1     3     3     0     0  2.947291149E+01  8.334772171E+00  2.214842455E+02  2.235920462E+02  1.056583668E-01  0.00000E+00  9.000E+00
      21     1     1     2   511   501  2.334512485E+00  8.777756649E+00  1.122081284E+00  9.151941146E+00  2.010276551E-07  0.00000E+00  9.000E+00
#pdf  -2  2 0.41013617E-01 0.12637585E-02 0.93592150E+02 0.21428244E+00 0.14097466E+01
#rwgt            1           4   369.00143801303625         54217137    18532045           0
</event>
<event>
      6  10013  3.31628E+03  2.20311E+01 -1.00000E+00  1.62936E-01
      21    -1     0     0   511   501  0.000000000E+00  0.000000000E+00  1.759823108E+01  1.759823108E+01  0.000000000E+00  0.00000E+00  9.000E+00
       2    -1     0     0   501     0  0.000000000E+00  0.000000000E+00 -1.958236874E+02  1.958236874E+02  0.000000000E+00  0.00000E+00  9.000E+00
      23     2     1     2     0     0 -1.511300173E+01  1.603024074E+01 -1.568183861E+02  1.827032907E+02  9.112142868E+01  0.00000E+00  9.000E+00
      13     1     3     3     0     0  2.826195255E+01 -1.338279594E+01 -1.027559636E+02  1.074087353E+02  1.056583668E-01  0.00000E+00  9.000E+00
     -13     1     3     3     0     0 -4.337495429E+01  2.941303668E+01 -5.406242248E+01  7.529455541E+01  1.056583668E-01  0.00000E+00  9.000E+00
       2     1     1     2   511     0  1.511300173E+01 -1.603024074E+01 -2.140707026E+01  3.071862784E+01  0.000000000E+00  0.00000E+00  9.000E+00
#pdf  -2  2 0.19353820E-02 0.25385612E-01 0.91121429E+02 0.11083108E+01 0.66227007E+00
#rwgt            1           4   809.03721919826069         54217137    18532196           0
</event>
<event>
      6  10013  3.31628E+03  1.15881E+00 -1.00000E+00  5.55642E-01
      -1    -1     0     0     0   511  0.000000000E+00  0.000000000E+00  2.351697792E-01  2.351697792E-01  0.000000000E+00  0.00000E+00  9.000E+00
       1    -1     0     0   501     0  0.000000000E+00  0.000000000E+00 -3.395072355E+03  3.395072355E+03  0.000000000E+00  0.00000E+00  9.000E+00
      23     2     1     2     0     0 -2.723975903E-02  1.158492196E+00 -3.359126191E+03  3.359577734E+03  5.506759830E+01  0.00000E+00  9.000E+00
      13     1     3     3     0     0 -1.905939265E+01 -1.922820696E+01 -1.763637235E+03  1.763845030E+03  1.056583668E-01  0.00000E+00  9.000E+00
     -13     1     3     3     0     0  1.903215290E+01  2.038669915E+01 -1.595488957E+03  1.595732704E+03  1.056583668E-01  0.00000E+00  9.000E+00
      21     1     1     2   501   511  2.723975903E-02 -1.158492196E+00 -3.571099387E+01  3.572979051E+01  0.000000000E+00  0.00000E+00  9.000E+00
#pdf  -1  1 0.34726383E-04 0.51670899E+00 0.55067598E+02 0.42600064E+01 0.27737773E-01
#rwgt            1           5   176.13636318031075         54217137    18532316           0
</event>
<event>
      6  10013  3.31628E+03  4.25890E+01 -1.00000E+00  1.43140E-01
       2    -1     0     0   501     0  0.000000000E+00  0.000000000E+00  2.681510513E+03  2.681510513E+03  0.000000000E+00  0.00000E+00  9.000E+00
      21    -1     0     0   511   501  0.000000000E+00  0.000000000E+00 -3.839444967E+00  3.839444967E+00  0.000000000E+00  0.00000E+00  9.000E+00
      23     2     1     2     0     0  3.316074452E+01 -2.672424997E+01  2.518864597E+03  2.520931845E+03  9.276147011E+01  0.00000E+00  9.000E+00
      13     1     3     3     0     0 -2.601737121E+01 -2.931353497E+01  1.348181117E+03  1.348750726E+03  1.056583668E-01  0.00000E+00  9.000E+00
     -13     1     3     3     0     0  5.917811573E+01  2.589284997E+00  1.170683480E+03  1.172181119E+03  1.056583668E-01  0.00000E+00  9.000E+00
       2     1     1     2   511     0 -3.316074452E+01  2.672424997E+01  1.588064708E+02  1.644181123E+02  0.000000000E+00  0.00000E+00  9.000E+00
#pdf   2 -2 0.35231768E+00 0.14451539E-03 0.92761470E+02 0.26872038E+00 0.30019108E+01
#rwgt            1           7   1316.9691128199543         54217137    18532561           0
</event>
<event>
      6  10013  3.31628E+03  1.62627E+01 -1.00000E+00  1.74094E-01
       2    -1     0     0   501     0  0.000000000E+00  0.000000000E+00  2.065750504E+02  2.065750504E+02  0.000000000E+00  0.00000E+00  9.000E+00
      21    -1     0     0   511   501  0.000000000E+00  0.000000000E+00 -4.524024882E+00  4.524024882E+00  0.000000000E+00  0.00000E+00  9.000E+00
      23     2     1     2     0     0  1.273027909E+01  1.012010609E+01  1.852233684E+02  1.876972250E+02  2.565298248E+01  0.00000E+00  9.000E+00
      13     1     3     3     0     0 -5.294949283E+00  1.569449559E+00  1.074222714E+01  1.207916667E+01  1.056583668E-01  0.00000E+00  9.000E+00
     -13     1     3     3     0     0  1.802522837E+01  8.550656536E+00  1.744811413E+02  1.756180583E+02  1.056583668E-01  0.00000E+00  9.000E+00
       2     1     1     2   511     0 -1.273027909E+01 -1.012010609E+01  1.682765708E+01  2.340185027E+01  0.000000000E+00  0.00000E+00  9.000E+00
#pdf   2 -2 0.24227881E-01 0.16072136E-03 0.25652982E+02 0.63317505E+00 0.20669565E+01
#rwgt            1           7   1169.8625400911519         54217137    18532632           0
</event>
<event>
      6  10013  3.31628E+03  3.44464E+00 -1.00000E+00  2.79645E-01
      21    -1     0     0   501   511  0.000000000E+00  0.000000000E+00  1.023371709E+01  1.023371709E+01  0.000000000E+00  0.00000E+00  9.000E+00
      -2    -1     0     0     0   501  0.000000000E+00  0.000000000E+00 -2.076979406E+01  2.076979406E+01  0.000000000E+00  0.00000E+00  9.000E+00
      23     2     1     2     0     0 -6.948501228E-01  3.373829236E+00 -1.482868366E+01  2.549969315E+01  2.045675809E+01  0.00000E+00  9.000E+00
      13     1     3     3     0     0  2.955417292E+00  2.188995630E+00  4.489014232E+00  5.804188634E+00  1.056583668E-01  0.00000E+00  9.000E+00
     -13     1     3     3     0     0 -3.650267415E+00  1.184833606E+00 -1.931769789E+01  1.969550452E+01  1.056583668E-01  0.00000E+00  9.000E+00
      -2     1     1     2     0   511  6.948501228E-01 -3.373829236E+00  4.292606688E+00  5.503818001E+00  0.000000000E+00  0.00000E+00  9.000E+00
#pdf   2 -2 0.80945151E-03 0.30591169E-02 0.20456758E+02 0.12072618E+01 0.72573314E+00
#rwgt            1           7   884.83348869384156         54217137    18532675           0
</event>
<event>
      6  10013  3.31628E+03  5.14561E+00 -1.00000E+00  2.36272E-01
      -2    -1     0     0     0   501  0.000000000E+00  0.000000000E+00  6.307411939E+00  6.307411939E+00  0.000000000E+00  0.00000E+00  9.000E+00
       2    -1     0     0   511     0  0.000000000E+00  0.000000000E+00 -2.910107487E+01  2.910107487E+01  0.000000000E+00  0.00000E+00  9.000E+00
      23     2     1     2     0     0 -5.136886390E+00 -2.994389260E-01 -1.519011146E+01  2.622745961E+01  2.075241880E+01  0.00000E+00  9.000E+00
      13     1     3     3     0     0  2.493339896E+00  8.319294697E+00 -2.381494923E+00  9.006114026E+00  1.056583668E-01  0.00000E+00  9.000E+00
     -13     1     3     3     0     0 -7.630226286E+00 -8.618733623E+00 -1.280861653E+01  1.722134558E+01  1.056583668E-01  0.00000E+00  9.000E+00
      21     1     1     2   511   501  5.136886390E+00  2.994389260E-01 -7.603551476E+00  9.181027203E+00  0.000000000E+00  0.00000E+00  9.000E+00
#pdf  -2  2 0.82407251E-03 0.30923263E-02 0.20752419E+02 0.11479312E+01 0.84461745E+00
#rwgt            1           4   631.75022115530908         54217137    18532804           0
</event>
<event>
      6  10013  3.31628E+03  1.08073E+01 -1.00000E+00  1.91883E-01
      -1    -1     0     0     0   511  0.000000000E+00  0.000000000E+00  2.967841178E+02  2.967841178E+02  0.000000000E+00  0.00000E+00  9.000E+00
       1    -1     0     0   501     0  0.000000000E+00  0.000000000E+00 -1.122184282E+01  1.122184282E+01  0.000000000E+00  0.00000E+00  9.000E+00
      23     2     1     2     0     0 -1.973872823E+00  1.062549941E+01  1.808635944E+02  2.027509792E+02  9.099188069E+01  0.00000E+00  9.000E+00
      13     1     3     3     0     0  3.380281108E+01 -2.376253846E+01  6.994775359E+01  8.124030814E+01  1.056583668E-01  0.00000E+00  9.000E+00
     -13     1     3     3     0     0 -3.577668390E+01  3.438803787E+01  1.109158408E+02  1.215106710E+02  1.056583668E-01  0.00000E+00  9.000E+00
      21     1     1     2   501   511  1.973872823E+00 -1.062549941E+01  1.046986805E+02  1.052549814E+02  0.000000000E+00  0.00000E+00  9.000E+00
#pdf  -1  1 0.29302853E-01 0.16718938E-02 0.90991881E+02 0.30428790E+00 0.12447296E+01
#rwgt            1           5   443.46710947420229         54217137    18532871           0
</event>
<event>
      6  10013  3.31628E+03  7.04482E+00 -1.00000E+00  2.15092E-01
       1    -1     0     0   511     0  0.000000000E+00  0.000000000E+00  7.541509057E+00  7.541509057E+00  0.000000000E+00  0.00000E+00  9.000E+00
      -1    -1     0     0     0   501  0.000000000E+00  0.000000000E+00 -3.255936638E+01  3.255936638E+01  0.000000000E+00  0.00000E+00  9.000E+00
      23     2     1     2     0     0  6.975024427E+00  9.891933106E-01 -2.220985298E+01  3.251705334E+01  2.268152816E+01  0.00000E+00  9.000E+00
      13     1     3     3     0     0  8.858982076E+00 -6.020622720E-01 -2.628953847E+01  2.774878446E+01  1.056583668E-01  0.00000E+00  9.000E+00
     -13     1     3     3     0     0 -1.883957649E+00  1.591255583E+00  4.079685490E+00  4.768268883E+00  1.056583668E-01  0.00000E+00  9.000E+00
      21     1     1     2   511   501 -6.975024427E+00 -9.891933106E-01 -2.808004347E+00  7.583822096E+00  4.214684851E-08  0.00000E+00  9.000E+00
#pdf   1 -1 0.75717954E-03 0.40203054E-02 0.22681528E+02 0.12479867E+01 0.67943158E+00
#rwgt            1           6   201.41744793458244         54217137    18532986           0
</event>
<event>
      6  10013  3.31628E+03  2.13287E+01 -1.00000E+00  1.64056E-01
      -2    -1     0     0     0   511  0.000000000E+00  0.000000000E+00  2.578418779E+00  2.578418779E+00  0.000000000E+00  0.00000E+00  9.000E+00
       2    -1     0     0   501     0  0.000000000E+00  0.000000000E+00 -1.311581521E+03  1.311581521E+03  0.000000000E+00  0.00000E+00  9.000E+00
      23     2     1     2     0     0 -1.341121628E+01 -1.658477045E+01 -1.069667705E+03  1.073876050E+03  9.255191123E+01  0.00000E+00  9.000E+00
      13     1     3     3     0     0 -1.633897259E+01 -1.394295531E+01 -5.281668777E+01  5.701738067E+01  1.056583668E-01  0.00000E+00  9.000E+00
     -13     1     3     3     0     0  2.927756317E+00 -2.641815136E+00 -1.016851017E+03  1.016858669E+03  1.056583668E-01  0.00000E+00  9.000E+00
      21     1     1     2   501   511  1.341121628E+01  1.658477045E+01 -2.393353975E+02  2.402838901E+02  4.672030912E-06  0.00000E+00  9.000E+00
#pdf  -2  2 0.31545073E-03 0.16067657E+00 0.92551911E+02 0.22582987E+01 0.54141349E+00
#rwgt            1           4   3488.3872331074026         54217137    18533058           0
</event>
<event>
      6  10013  3.31628E+03  1.46059E+00 -1.00000E+00  4.53594E-01
       1    -1     0     0   501     0  0.000000000E+00  0.000000000E+00  1.764713099E+01  1.764713099E+01  0.000000000E+00  0.00000E+00  9.000E+00
      -1    -1     0     0     0   511  0.000000000E+00  0.000000000E+00 -3.966689788E+01  3.966689788E+01  0.000000000E+00  0.00000E+00  9.000E+00
      23     2     1     2     0     0 -1.095474962E+00 -9.660469382E-01 -2.605183563E+00  3.784458209E+01  3.772654370E+01  0.00000E+00  9.000E+00
      13     1     3     3     0     0  1.586402391E+01  6.828250459E+00  4.540625740E+00  1.785835112E+01  1.056583668E-01  0.00000E+00  9.000E+00
     -13     1     3     3     0     0 -1.695949887E+01 -7.794297397E+00 -7.145809303E+00  1.998623097E+01  1.056583668E-01  0.00000E+00  9.000E+00
      21     1     1     2   501   511  1.095474962E+00  9.660469382E-01 -1.941458333E+01  1.946944678E+01  3.371747881E-07  0.00000E+00  9.000E+00
#pdf   1 -1 0.27086938E-02 0.31091912E-02 0.37726544E+02 0.92728760E+00 0.81349866E+00
#rwgt            1           6   173.03098937078909         54217137    18533095           0
</event>
<event>
      6  10013  3.31628E+03  2.59922E+00 -1.00000E+00  3.16981E-01
       4    -1     0     0   511     0  0.000000000E+00  0.000000000E+00  2.479513222E+02  2.479513222E+02  0.000000000E+00  0.00000E+00  9.000E+00
      -4    -1     0     0     0   501  0.000000000E+00  0.000000000E+00 -9.424907028E+00  9.424907028E+00  0.000000000E+00  0.00000E+00  9.000E+00
      23     2     1     2     0     0 -1.404464870E-01 -2.595420519E+00  2.022577805E+02  2.210145765E+02  8.906445583E+01  0.00000E+00  9.000E+00
      13     1     3     3     0     0  3.152251004E+01  2.913943977E+01  7.987580606E+01  9.068037906E+01  1.056583668E-01  0.00000E+00  9.000E+00
     -13     1     3     3     0     0 -3.166295653E+01 -3.173486029E+01  1.223819745E+02  1.303341974E+02  1.056583668E-01  0.00000E+00  9.000E+00
      21     1     1     2   511   501  1.404464870E-01  2.595420519E+00  3.626863459E+01  3.636165271E+01  0.000000000E+00  0.00000E+00  9.000E+00
#pdf   4 -4 0.32545556E-01 0.14422164E-02 0.89064456E+02 0.13475660E+00 0.99459256E+00
#rwgt            1           9   122.96968985328546         54217137    18533298           0
</event>
<event>
      6  10013  3.31628E+03  2.73532E+01 -1.00000E+00  1.55843E-01
      21    -1     0     0   511   501  0.000000000E+00  0.000000000E+00  3.139991799E+00  3.139991799E+00  0.000000000E+00  0.00000E+00  9.000E+00
       2    -1     0     0   501     0  0.000000000E+00  0.000000000E+00 -2.680951908E+03  2.680951908E+03  0.000000000E+00  0.00000E+00  9.000E+00
      23     2     1     2     0     0 -4.739665593E+00  2.693938549E+01 -2.603101128E+03  2.604531252E+03  8.184962481E+01  0.00000E+00  9.000E+00
      13     1     3     3     0     0 -1.722826301E+01 -3.346781755E+00 -1.263118290E+02  1.275253045E+02  1.056583668E-01  0.00000E+00  9.000E+00
     -13     1     3     3     0     0  1.248859741E+01  3.028616725E+01 -2.476789300E+03  2.477005947E+03  1.056583668E-01  0.00000E+00  9.000E+00
       2     1     1     2   511     0  4.739665593E+00 -2.693938549E+01 -7.471078741E+01  7.956064778E+01  0.000000000E+00  0.00000E+00  9.000E+00
#pdf  -2  2 0.10433738E-03 0.37993278E+00 0.81849625E+02 0.32718320E+01 0.23618221E+00
#rwgt            1           4   6983.0793795301515         54217137    18533621           0
</event>
<event>
      6  10013  3.31628E+03  6.35846E+00 -1.00000E+00  2.21552E-01
       2    -1     0     0   501     0  0.000000000E+00  0.000000000E+00  6.749245021E+02  6.749245021E+02  0.000000000E+00  0.00000E+00  9.000E+00
      -2    -1     0     0     0   511  0.000000000E+00  0.000000000E+00 -4.729780333E+00  4.729780333E+00  0.000000000E+00  0.00000E+00  9.000E+00
      23     2     1     2     0     0 -4.483794173E+00  4.508395223E+00  6.708351686E+02  6.732636479E+02  5.677751402E+01  0.00000E+00  9.000E+00
      13     1     3     3     0     0  8.638849838E+00  2.836588417E+01  3.180626092E+02  3.194418376E+02  1.056583668E-01  0.00000E+00  9.000E+00
     -13     1     3     3     0     0 -1.312264401E+01 -2.385748895E+01  3.527725595E+02  3.538218103E+02  1.056583668E-01  0.00000E+00  9.000E+00
      21     1     1     2   501   511  4.483794173E+00 -4.508395223E+00 -6.404468378E-01  6.390634540E+00  5.506377285E-07  0.00000E+00  9.000E+00
#pdf   2 -2 0.10274990E+00 0.18564558E-03 0.56777514E+02 0.60817856E+00 0.24502720E+01
#rwgt            1           7   1982.1468271615809         54217137    18533814           0
</event>
<event>
      6  10013  3.31628E+03  5.75377E+00 -1.00000E+00  2.28255E-01
       1    -1     0     0   501     0  0.000000000E+00  0.000000000E+00  1.677408662E+00  1.677408662E+00  0.000000000E+00  0.00000E+00  9.000E+00
      21    -1     0     0   511   501  0.000000000E+00  0.000000000E+00 -9.927476261E+02  9.927476261E+02  0.000000000E+00  0.00000E+00  9.000E+00
      23     2     1     2     0     0  5.710604077E+00  7.035108654E-01 -7.965923382E+02  7.998620592E+02  7.201982105E+01  0.00000E+00  9.000E+00
      13     1     3     3     0     0 -2.687224575E+01  1.465259156E+01 -5.356305763E+02  5.365043723E+02  1.056583668E-01  0.00000E+00  9.000E+00
     -13     1     3     3     0     0  3.258284983E+01 -1.394908070E+01 -2.609617619E+02  2.633576870E+02  1.056583668E-01  0.00000E+00  9.000E+00
       1     1     1     2   511     0 -5.710604077E+00 -7.035108654E-01 -1.944778792E+02  1.945629755E+02  0.000000000E+00  0.00000E+00  9.000E+00
#pdf   1 -1 0.25071815E-03 0.12241414E+00 0.72019821E+02 0.23548496E+01 0.90311107E-01
#rwgt            1           6   177.24403690687103         54217137    18533885           0
</event>
<event>
      6  10013  3.31628E+03  5.43916E+00 -1.00000E+00  2.32218E-01
      -3    -1     0     0     0   511  0.000000000E+00  0.000000000E+00  9.041968627E+00  9.041968627E+00  0.000000000E+00  0.00000E+00  9.000E+00
       3    -1     0     0   501     0  0.000000000E+00  0.000000000E+00 -4.198186861E+02  4.198186861E+02  0.000000000E+00  0.00000E+00  9.000E+00
      23     2     1     2     0     0  4.334552057E+00  3.285736975E+00 -4.129981040E+02  4.229853703E+02  9.121186948E+01  0.00000E+00  9.000E+00
      13     1     3     3     0     0 -1.933816691E-01 -1.701987683E+01 -1.060476865E+01  2.005457268E+01  1.056583668E-01  0.00000E+00  9.000E+00
     -13     1     3     3     0     0  4.527933726E+00  2.030561380E+01 -4.023933354E+02  4.029307976E+02  1.056583668E-01  0.00000E+00  9.000E+00
      21     1     1     2   501   511 -4.334552057E+00 -3.285736975E+00  2.221386558E+00  5.875284440E+00  1.115100797E-07  0.00000E+00  9.000E+00
#pdf  -3  3 0.76688894E-03 0.64192389E-01 0.91211869E+02 0.15655205E+01 0.11448645E+00
#rwgt            1           3   194.46347503108765         54217137    18533938           0
</event>
<event>
      6  10013  3.31628E+03  1.82369E+00 -1.00000E+00  3.82630E-01
       2    -1     0     0   501     0  0.000000000E+00  0.000000000E+00  6.374854449E+00  6.374854449E+00  0.000000000E+00  0.00000E+00  9.000E+00
      -2    -1     0     0     0   511  0.000000000E+00  0.000000000E+00 -2.268299137E+01  2.268299137E+01  0.000000000E+00  0.00000E+00  9.000E+00
      23     2     1     2     0     0 -3.479283750E-02 -1.823354529E+00 -1.296448102E+01  2.524918896E+01  2.158976477E+01  0.00000E+00  9.000E+00
      13     1     3     3     0     0 -3.101691628E+00  3.577776665E+00  4.609834767E+00  6.609290211E+00  1.056583668E-01  0.00000E+00  9.000E+00
     -13     1     3     3     0     0  3.066898791E+00 -5.401131194E+00 -1.757431579E+01  1.863989875E+01  1.056583668E-01  0.00000E+00  9.000E+00
      21     1     1     2   501   511  3.479283750E-02  1.823354529E+00 -3.343655904E+00  3.808656861E+00  5.960464478E-08  0.00000E+00  9.000E+00
#pdf   2 -2 0.94162418E-03 0.29290819E-02 0.21589765E+02 0.11713605E+01 0.74508259E+00
#rwgt            1           7   701.36987536367178         54217137    18534024           0
</event>
<event>
      6  10013  3.31628E+03  1.09755E+01 -1.00000E+00  1.91142E-01
       4    -1     0     0   511     0  0.000000000E+00  0.000000000E+00  2.433267373E+01  2.433267373E+01  0.000000000E+00  0.00000E+00  9.000E+00
      -4    -1     0     0     0   501  0.000000000E+00  0.000000000E+00 -1.154919320E+02  1.154919320E+02  0.000000000E+00  0.00000E+00  9.000E+00
      23     2     1     2     0     0  5.092147221E+00  9.722776363E+00 -8.783752389E+01  1.283574237E+02  9.295017632E+01  0.00000E+00  9.000E+00
      13     1     3     3     0     0 -4.278472735E+01  8.109785749E+00 -5.556762057E+01  7.059796838E+01  1.056583668E-01  0.00000E+00  9.000E+00
     -13     1     3     3     0     0  4.787687457E+01  1.612990614E+00 -3.226990332E+01  5.775945535E+01  1.056583668E-01  0.00000E+00  9.000E+00
      21     1     1     2   511   501 -5.092147221E+00 -9.722776363E+00 -3.321734364E+00  1.146718199E+01  2.698715072E-07  0.00000E+00  9.000E+00
#pdf   4 -4 0.30954107E-02 0.16515642E-01 0.92950176E+02 0.69222823E+00 0.24463255E+00
#rwgt            1           9   153.07245156786860         54217137    18534111           0
</event>
<event>
      6  10013  3.31628E+03  6.35445E+01 -1.00000E+00  1.33358E-01
       3    -1     0     0   501     0  0.000000000E+00  0.000000000E+00  2.001250279E+01  2.001250279E+01  0.000000000E+00  0.00000E+00  9.000E+00
      -3    -1     0     0     0   511  0.000000000E+00  0.000000000E+00 -7.053627605E+02  7.053627605E+02  0.000000000E+00  0.00000E+00  9.000E+00
      23     2     1     2     0     0  6.351140561E+01  2.051108972E+00 -1.508846225E+02  1.871453674E+02  9.066042971E+01  0.00000E+00  9.000E+00
      13     1     3     3     0     0  7.096391986E+01 -3.825009908E+00 -5.262956048E+01  8.843297136E+01  1.056583668E-01  0.00000E+00  9.000E+00
     -13     1     3     3     0     0 -7.452514248E+00  5.876118880E+00 -9.825506206E+01  9.871239601E+01  1.056583668E-01  0.00000E+00  9.000E+00
      21     1     1     2   501   511 -6.351140561E+01 -2.051108972E+00 -5.344656351E+02  5.382298959E+02  7.629394531E-06  0.00000E+00  9.000E+00
#pdf   3 -3 0.22841003E-02 0.21292844E-01 0.90660430E+02 0.99780342E+00 0.30661430E+00
#rwgt            1           8   432.41541510660721         54217137    18534216           0
</event>
<event>
      6  10013  3.31628E+03  3.31793E+00 -1.00000E+00  2.84068E-01
      21    -1     0     0   501   511  0.000000000E+00  0.000000000E+00  2.499032748E+00  2.499032748E+00  0.000000000E+00  0.00000E+00  9.000E+00
      -1    -1     0     0     0   501  0.000000000E+00  0.000000000E+00 -1.698560834E+02  1.698560834E+02  0.000000000E+00  0.00000E+00  9.000E+00
      23     2     1     2     0     0  3.100901779E+00 -1.180280545E+00 -1.665899129E+02  1.689496567E+02  2.794241870E+01  0.00000E+00  9.000E+00
      13     1     3     3     0     0 -1.233180830E+00  1.199876092E+01 -4.565812388E+01  4.722463805E+01  1.056583668E-01  0.00000E+00  9.000E+00
     -13     1     3     3     0     0  4.334082609E+00 -1.317904146E+01 -1.209317890E+02  1.217250186E+02  1.056583668E-01  0.00000E+00  9.000E+00
      -1     1     1     2     0   511 -3.100901779E+00  1.180280545E+00 -7.671377987E-01  3.405459500E+00  0.000000000E+00  0.00000E+00  9.000E+00
#pdf   1 -1 0.18025246E-03 0.25630678E-01 0.27942419E+02 0.20644405E+01 0.31534621E+00
#rwgt            1           6   145.68952925840458         54217137    18534258           0
</event>
<event>
      6  10013  3.31628E+03  3.49508E+01 -1.00000E+00  1.48538E-01
      -1    -1     0     0     0   511  0.000000000E+00  0.000000000E+00  4.968977489E+01  4.968977489E+01  0.000000000E+00  0.00000E+00  9.000E+00
       1    -1     0     0   501     0  0.000000000E+00  0.000000000E+00 -3.854171469E+02  3.854171469E+02  0.000000000E+00  0.00000E+00  9.000E+00
      23     2     1     2     0     0 -1.233298770E+01 -3.270255737E+01 -3.721722986E+02  3.846114515E+02  9.051071153E+01  0.00000E+00  9.000E+00
      13     1     3     3     0     0 -3.956719544E+00 -3.723334098E+00 -3.416659791E+02  3.417091911E+02  1.056583668E-01  0.00000E+00  9.000E+00
     -13     1     3     3     0     0 -8.376268159E+00 -2.897922327E+01 -3.050631948E+01  4.290226033E+01  1.056583668E-01  0.00000E+00  9.000E+00
      21     1     1     2   501   511  1.233298770E+01  3.270255737E+01  3.644492663E+01  5.049547030E+01  1.581489940E-06  0.00000E+00  9.000E+00
#pdf  -1  1 0.89261901E-03 0.54305913E-01 0.90510712E+02 0.15207499E+01 0.43571087E+00
#rwgt            1           5   1037.9573494392125         54217137    18534339           0
</event>
<event>
      6  10013  3.31628E+03  1.60915E+01 -1.00000E+00  1.74511E-01
       3    -1     0     0   501     0  0.000000000E+00  0.000000000E+00  9.542280578E+02  9.542280578E+02  0.000000000E+00  0.00000E+00  9.000E+00
      21    -1     0     0   511   501  0.000000000E+00  0.000000000E+00 -9.747740269E+00  9.747740269E+00  0.000000000E+00  0.00000E+00  9.000E+00
      23     2     1     2     0     0  8.320279516E+00 -1.377355545E+01  9.433416017E+02  9.478440110E+02  9.086227904E+01  0.00000E+00  9.000E+00
      13     1     3     3     0     0  3.640415712E+00  2.022778759E+01  5.306785043E+01  5.690890906E+01  1.056583668E-01  0.00000E+00  9.000E+00
     -13     1     3     3     0     0  4.679863804E+00 -3.400134304E+01  8.902737513E+02  8.909351019E+02  1.056583668E-01  0.00000E+00  9.000E+00
       3     1     1     2   511     0 -8.320279516E+00  1.377355545E+01  1.138715821E+00  1.613178709E+01  0.000000000E+00  0.00000E+00  9.000E+00
#pdf   3 -3 0.14324678E+00 0.34103243E-03 0.90862279E+02 0.33963762E-01 0.21355439E+01
#rwgt            1           8   94.448700696482092         54217137    18534368           0
</event>
<event>
      6  10013  3.31628E+03  2.99100E+00 -1.00000E+00  2.97125E-01
      21    -1     0     0   511   501  0.000000000E+00  0.000000000E+00  8.451140807E-01  8.451140807E-01  0.000000000E+00  0.00000E+00  9.000E+00
       3    -1     0     0   501     0  0.000000000E+00  0.000000000E+00 -4.782867007E+03  4.782867007E+03  0.000000000E+00  0.00000E+00  9.000E+00
      23     2     1     2     0     0 -2.619258024E+00 -1.444153315E+00 -4.777467688E+03  4.778263555E+03  8.715585993E+01  0.00000E+00  9.000E+00
      13     1     3     3     0     0  2.569314854E+01 -3.473280985E+01 -2.176041505E+03  2.176470342E+03  1.056583668E-01  0.00000E+00  9.000E+00
     -13     1     3     3     0     0 -2.831240656E+01  3.328865654E+01 -2.601426183E+03  2.601793213E+03  1.056583668E-01  0.00000E+00  9.000E+00
       3     1     1     2   511     0  2.619258024E+00  1.444153315E+00 -4.554205030E+00  5.448566311E+00  0.000000000E+00  0.00000E+00  9.000E+00
#pdf  -3  3 0.61184511E-04 0.73462379E+00 0.87155860E+02 0.39209315E+01 0.12076041E-04
#rwgt            1           3  0.52126398122395756         54217137    18534431           0
</event>
<event>
      6  10013  3.31628E+03  4.00963E+01 -1.00000E+00  1.44744E-01
      21    -1     0     0   501   511  0.000000000E+00  0.000000000E+00  6.219236452E+01  6.219236452E+01  0.000000000E+00  0.00000E+00  9.000E+00
      -5    -1     0     0     0   501  0.000000000E+00  0.000000000E+00 -1.126008137E+02  1.126008137E+02  0.000000000E+00  0.00000E+00  9.000E+00
      23     2     1     2     0     0 -2.623242632E+01 -3.032444584E+01 -7.907466868E+01  1.255035816E+02  8.882923816E+01  0.00000E+00  9.000E+00
      13     1     3     3     0     0 -4.960343085E+01  3.988746025E+00 -6.458116460E+01  8.153004619E+01  1.056583668E-01  0.00000E+00  9.000E+00
     -13     1     3     3     0     0  2.337100453E+01 -3.431319187E+01 -1.449350407E+01  4.397353537E+01  1.056583668E-01  0.00000E+00  9.000E+00
      -5     1     1     2     0   511  2.623242632E+01  3.032444584E+01  2.866621945E+01  4.928959671E+01  0.000000000E+00  0.00000E+00  9.000E+00
#pdf   5 -5 0.32551958E-02 0.14343266E-01 0.88829238E+02 0.45294285E+00 0.16640707E+00
#rwgt            1          10   125.19544296752572         54217137    18534637           0
</event>
<event>
      6  10013  3.31628E+03  1.52902E+00 -1.00000E+00  4.27699E-01
      -2    -1     0     0     0   511  0.000000000E+00  0.000000000E+00  1.333977966E-01  1.333977966E-01  0.000000000E+00  0.00000E+00  9.000E+00
       2    -1     0     0   501     0  0.000000000E+00  0.000000000E+00 -2.202410439E+03  2.202410439E+03  0.000000000E+00  0.00000E+00  9.000E+00
      23     2     1     2     0     0 -1.386289593E+00  6.450501341E-01 -2.155247748E+03  2.155489694E+03  3.225879612E+01  0.00000E+00  9.000E+00
      13     1     3     3     0     0  9.150941545E+00 -3.553542698E+00 -2.310059043E+02  2.312144165E+02  1.056583668E-01  0.00000E+00  9.000E+00
     -13     1     3     3     0     0 -1.053723114E+01  4.198592832E+00 -1.924241843E+03  1.924275278E+03  1.056583668E-01  0.00000E+00  9.000E+00
      21     1     1     2   501   511  1.386289593E+00 -6.450501341E-01 -4.702929307E+01  4.705414217E+01  6.743495762E-07  0.00000E+00  9.000E+00
#pdf  -2  2 0.18590398E-04 0.33122333E+00 0.32258796E+02 0.43438591E+01 0.34007425E+00
#rwgt            1           4   11191.480209757055         54217137    18534827           0
</event>
<event>
      6  10013  3.31628E+03  4.64967E+00 -1.00000E+00  2.48867E-01
       2    -1     0     0   511     0  0.000000000E+00  0.000000000E+00  3.538070815E+02  3.538070815E+02  0.000000000E+00  0.00000E+00  9.000E+00
      -2    -1     0     0     0   501  0.000000000E+00  0.000000000E+00 -1.506821838E+00  1.506821838E+00  0.000000000E+00  0.00000E+00  9.000E+00
      23     2     1     2     0     0 -1.849613611E+00 -4.265951301E+00  3.004040834E+02  3.032098486E+02  4.088984648E+01  0.00000E+00  9.000E+00
      13     1     3     3     0     0 -5.000247615E+00 -2.649753486E+00  4.359919218E+00  7.144489417E+00  1.056583668E-01  0.00000E+00  9.000E+00
     -13     1     3     3     0     0  3.150634004E+00 -1.616197816E+00  2.960441642E+02  2.960653592E+02  1.056583668E-01  0.00000E+00  9.000E+00
      21     1     1     2   511   501  1.849613611E+00  4.265951301E+00  5.189617629E+01  5.210405478E+01  6.743495762E-07  0.00000E+00  9.000E+00
#pdf   2 -2 0.46134529E-01 0.21444610E-03 0.40889846E+02 0.63123014E+00 0.21469097E+01
#rwgt            1           7   4489.2957831749445         54217137    18535020           0
</event>
<event>
      6  10013  3.31628E+03  2.77297E+01 -1.00000E+00  1.55416E-01
       2    -1     0     0   501     0  0.000000000E+00  0.000000000E+00  2.083026823E+03  2.083026823E+03  0.000000000E+00  0.00000E+00  9.000E+00
      21    -1     0     0   511   501  0.000000000E+00  0.000000000E+00 -3.670490649E+00  3.670490649E+00  0.000000000E+00  0.00000E+00  9.000E+00
      23     2     1     2     0     0 -9.422523331E-01  2.771368514E+01  2.004691152E+03  2.007049180E+03  9.322476051E+01  0.00000E+00  9.000E+00
      13     1     3     3     0     0  1.055062627E+01 -1.286471655E+01  7.198014656E+01  7.387807056E+01  1.056583668E-01  0.00000E+00  9.000E+00
     -13     1     3     3     0     0 -1.149287860E+01  4.057840169E+01  1.932711006E+03  1.933171109E+03  1.056583668E-01  0.00000E+00  9.000E+00
       2     1     1     2   511     0  9.422523331E-01 -2.771368514E+01  7.466517964E+01  7.964813390E+01  0.000000000E+00  0.00000E+00  9.000E+00
#pdf   2 -2 0.29578758E+00 0.17385849E-03 0.93224761E+02 0.34928871E+00 0.28122629E+01
#rwgt            1           7   1356.8800546137657         54217137    18535128           0
</event>
<event>
      6  10013  3.31628E+03  4.80710E+00 -1.00000E+00  2.45884E-01
       2    -1     0     0   501     0  0.000000000E+00  0.000000000E+00  1.926768968E+03  1.926768968E+03  0.000000000E+00  0.00000E+00  9.000E+00
      21    -1     0     0   511   501  0.000000000E+00  0.000000000E+00 -6.950623154E-01  6.950623154E-01  0.000000000E+00  0.00000E+00  9.000E+00
      23     2     1     2     0     0  2.495394278E+00 -4.108678346E+00  1.753876819E+03  1.755199859E+03  6.796718918E+01  0.00000E+00  9.000E+00
      13     1     3     3     0     0  8.736463651E+00 -2.570451999E+01  3.207991649E+02  3.219459015E+02  1.056583668E-01  0.00000E+00  9.000E+00
     -13     1     3     3     0     0 -6.241069374E+00  2.159584164E+01  1.433077654E+03  1.433253957E+03  1.056583668E-01  0.00000E+00  9.000E+00
       2     1     1     2   511     0 -2.495394278E+00  4.108678346E+00  1.721970862E+02  1.722641714E+02  0.000000000E+00  0.00000E+00  9.000E+00
#pdf   2 -2 0.26925637E+00 0.10151867E-03 0.67967189E+02 0.40077246E+00 0.31549618E+01
#rwgt            1           7   4793.7743513650994         54217137    18535166           0
</event>
<event>
      6  10013  3.31628E+03  6.25765E+00 -1.00000E+00  2.22597E-01
       2    -1     0     0   501     0  0.000000000E+00  0.000000000E+00  1.189034447E+02  1.189034447E+02  0.000000000E+00  0.00000E+00  9.000E+00
      21    -1     0     0   511   501  0.000000000E+00  0.000000000E+00 -3.310424153E+00  3.310424153E+00  0.000000000E+00  0.00000E+00  9.000E+00
      23     2     1     2     0     0 -3.714067891E+00  5.036252711E+00  1.104947098E+02  1.141422572E+02  2.793234408E+01  0.00000E+00  9.000E+00
      13     1     3     3     0     0 -1.368804019E+01 -3.036569460E+00  3.765242602E+01  4.017834675E+01  1.056583668E-01  0.00000E+00  9.000E+00
     -13     1     3     3     0     0  9.973972300E+00  8.072822171E+00  7.284228382E+01  7.396391050E+01  1.056583668E-01  0.00000E+00  9.000E+00
       2     1     1     2   511     0  3.714067891E+00 -5.036252711E+00  5.098310683E+00  8.071611579E+00  0.000000000E+00  0.00000E+00  9.000E+00
#pdf   2 -2 0.16861809E-01 0.27379398E-03 0.27932344E+02 0.65187129E+00 0.17861733E+01
#rwgt            1           7   1180.0186761731820         54217137    18535304           0
</event>
<event>
      6  10013  3.31628E+03  4.37545E+01 -1.00000E+00  1.42434E-01
      21    -1     0     0   511   501  0.000000000E+00  0.000000000E+00  2.347547677E+01  2.347547677E+01  0.000000000E+00  0.00000E+00  9.000E+00
       2    -1     0     0   501     0  0.000000000E+00  0.000000000E+00 -2.516632940E+02  2.516632940E+02  0.000000000E+00  0.00000E+00  9.000E+00
      23     2     1     2     0     0 -2.202404116E+01  3.780732960E+01 -5.252804992E+01  9.411168326E+01  6.467890180E+01  0.00000E+00  9.000E+00
      13     1     3     3     0     0  5.681562348E+00  4.803935470E+01 -3.567944199E+01  6.010901342E+01  1.056583668E-01  0.00000E+00  9.000E+00
     -13     1     3     3     0     0 -2.770560351E+01 -1.023202509E+01 -1.684860793E+01  3.400266984E+01  1.056583668E-01  0.00000E+00  9.000E+00
       2     1     1     2   511     0  2.202404116E+01 -3.780732960E+01 -1.756597673E+02  1.810270875E+02  0.000000000E+00  0.00000E+00  9.000E+00
#pdf  -2  2 0.26494435E-02 0.93429473E-02 0.64678902E+02 0.92724587E+00 0.75513261E+00
#rwgt            1           4   852.34647102780366         54217137    18535335           0
</event>
<event>
      6  10013  3.31628E+03  2.98375E+01 -1.00000E+00  1.53169E-01
       1    -1     0     0   511     0  0.000000000E+00  0.000000000E+00  6.165315510E+00  6.165315510E+00  0.000000000E+00  0.00000E+00  9.000E+00
      -1    -1     0     0     0   501  0.000000000E+00  0.000000000E+00 -7.241863996E+02  7.241863996E+02  0.000000000E+00  0.00000E+00  9.000E+00
      23     2     1     2     0     0  5.621031511E+00  2.930322301E+01 -6.351336755E+02  6.422574623E+02  9.060677269E+01  0.00000E+00  9.000E+00
      13     1     3     3     0     0  1.190194539E+01 -1.634213575E+01 -4.800108879E+02  4.804364530E+02  1.056583668E-01  0.00000E+00  9.000E+00
     -13     1     3     3     0     0 -6.280913880E+00  4.564535876E+01 -1.551227876E+02  1.618210093E+02  1.056583668E-01  0.00000E+00  9.000E+00
      21     1     1     2   511   501 -5.621031511E+00 -2.930322301E+01 -8.288740855E+01  8.809425277E+01  0.000000000E+00  0.00000E+00  9.000E+00
#pdf   1 -1 0.52048811E-03 0.93330545E-01 0.90606773E+02 0.19014908E+01 0.12383108E+00
#rwgt            1           6   280.79624979902059         54217137    18535377           0
</event>
<event>
      6  10013  3.31628E+03  1.40115E+01 -1.00000E+00  1.80170E-01
      -1    -1     0     0     0   501  0.000000000E+00  0.000000000E+00  1.405972282E+01  1.405972282E+01  0.000000000E+00  0.00000E+00  9.000E+00
       1    -1     0     0   511     0  0.000000000E+00  0.000000000E+00 -2.156114325E+02  2.156114325E+02  0.000000000E+00  0.00000E+00  9.000E+00
      23     2     1     2     0     0 -1.069948390E+01 -9.046710743E+00 -1.503162760E+02  1.765543822E+02  9.154313237E+01  0.00000E+00  9.000E+00
      13     1     3     3     0     0  2.305002503E+01  3.173096543E+01 -7.274774864E+01  8.264625773E+01  1.056583668E-01  0.00000E+00  9.000E+00
     -13     1     3     3     0     0 -3.374950893E+01 -4.077767617E+01 -7.756852741E+01  9.390812443E+01  1.056583668E-01  0.00000E+00  9.000E+00
      21     1     1     2   511   501  1.069948390E+01  9.046710743E+00 -5.123543366E+01  5.311677319E+01  6.743495762E-07  0.00000E+00  9.000E+00
#pdf  -1  1 0.19950817E-02 0.24854449E-01 0.91543132E+02 0.11050604E+01 0.52539847E+00
#rwgt            1           5   851.51051383011963         54217137    18535418           0
</event>
<event>
      6  10013  3.31628E+03  3.19918E+01 -1.00000E+00  1.51092E-01
       1    -1     0     0   501     0  0.000000000E+00  0.000000000E+00  1.964535977E+02  1.964535977E+02  0.000000000E+00  0.00000E+00  9.000E+00
      21    -1     0     0   511   501  0.000000000E+00  0.000000000E+00 -3.838217761E+01  3.838217761E+01  0.000000000E+00  0.00000E+00  9.000E+00
      23     2     1     2     0     0 -9.990637789E+00 -3.039177415E+01  1.738474772E+02  1.991656652E+02  9.176352261E+01  0.00000E+00  9.000E+00
      13     1     3     3     0     0 -1.777539440E+01 -5.962069879E+01  8.518168432E+01  1.054823344E+02  1.056583668E-01  0.00000E+00  9.000E+00
     -13     1     3     3     0     0  7.784756616E+00  2.922892464E+01  8.866579287E+01  9.368333075E+01  1.056583668E-01  0.00000E+00  9.000E+00
       1     1     1     2   511     0  9.990637789E+00  3.039177415E+01 -1.577605710E+01  3.567011013E+01  0.000000000E+00  0.00000E+00  9.000E+00
#pdf   1 -1 0.27093960E-01 0.18389968E-02 0.91763523E+02 0.51438773E+00 0.11428623E+01
#rwgt            1           6   609.49098650995597         54217137    18535566           0
</event>
<event>
      6  10013  3.31628E+03  5.36922E+01 -1.00000E+00  1.37305E-01
      21    -1     0     0   511   501  0.000000000E+00  0.000000000E+00  3.643299101E+01  3.643299101E+01  0.000000000E+00  0.00000E+00  9.000E+00
       2    -1     0     0   501     0  0.000000000E+00  0.000000000E+00 -1.629118245E+02  1.629118245E+02  0.000000000E+00  0.00000E+00  9.000E+00
      23     2     1     2     0     0  5.178986284E+01  1.416550139E+01 -4.300796459E+01  1.000964539E+02  7.271013510E+01  0.00000E+00  9.000E+00
      13     1     3     3     0     0  6.992626227E+01  1.695754299E+01 -3.252437560E+01  7.896256449E+01  1.056583668E-01  0.00000E+00  9.000E+00
     -13     1     3     3     0     0 -1.813639943E+01 -2.792041603E+00 -1.048358899E+01  2.113388943E+01  1.056583668E-01  0.00000E+00  9.000E+00
       2     1     1     2   511     0 -5.178986284E+01 -1.416550139E+01 -8.347086893E+01  9.924836161E+01  0.000000000E+00  0.00000E+00  9.000E+00
#pdf  -2  2 0.35326398E-02 0.88553116E-02 0.72710135E+02 0.83354134E+00 0.77037467E+00
#rwgt            1           4   613.56155636181575         54217137    18535593           0
</event>
<event>
      6  10013  3.31628E+03  7.30554E+00 -1.00000E+00  2.12895E-01
      -3    -1     0     0     0   501  0.000000000E+00  0.000000000E+00  4.854822592E+02  4.854822592E+02  0.000000000E+00  0.00000E+00  9.000E+00
      21    -1     0     0   501   511  0.000000000E+00  0.000000000E+00 -1.479870259E+01  1.479870259E+01  0.000000000E+00  0.00000E+00  9.000E+00
      23     2     1     2     0     0 -4.333893067E+00  5.881175211E+00  4.794235087E+02  4.888898417E+02  9.546206471E+01  0.00000E+00  9.000E+00
      13     1     3     3     0     0 -3.864403623E+01  3.258015599E+01  2.110797548E+02  2.170472349E+02  1.056583668E-01  0.00000E+00  9.000E+00
     -13     1     3     3     0     0  3.431014317E+01 -2.669898078E+01  2.683437539E+02  2.718426069E+02  1.056583668E-01  0.00000E+00  9.000E+00
      -3     1     1     2     0   511  4.333893067E+00 -5.881175211E+00 -8.739952165E+00  1.139112000E+01  0.000000000E+00  0.00000E+00  9.000E+00
#pdf  -3  3 0.74268481E-01 0.72605647E-03 0.95462065E+02 0.95773772E-01 0.16126177E+01
#rwgt            1           3   235.39388198094127         54217137    18535643           0
</event>
<event>
      6  10013  3.31628E+03  2.02505E+01 -1.00000E+00  1.65883E-01
      21    -1     0     0   511   501  0.000000000E+00  0.000000000E+00  1.610966052E+01  1.610966052E+01  0.000000000E+00  0.00000E+00  9.000E+00
       3    -1     0     0   501     0  0.000000000E+00  0.000000000E+00 -2.370334917E+02  2.370334917E+02  0.000000000E+00  0.00000E+00  9.000E+00
      23     2     1     2     0     0 -1.754465223E+01  1.011277687E+01 -2.115289555E+02  2.308194705E+02  9.012794169E+01  0.00000E+00  9.000E+00
      13     1     3     3     0     0  1.015263431E+01  4.548992642E+01 -9.218229517E+01  1.032956732E+02  1.056583668E-01  0.00000E+00  9.000E+00
     -13     1     3     3     0     0 -2.769728654E+01 -3.537714955E+01 -1.193466603E+02  1.275237973E+02  1.056583668E-01  0.00000E+00  9.000E+00
       3     1     1     2   511     0  1.754465223E+01 -1.011277687E+01 -9.394875749E+00  2.232368178E+01  0.000000000E+00  0.00000E+00  9.000E+00
#pdf  -3  3 0.14477907E-02 0.33199109E-01 0.90127942E+02 0.12091251E+01 0.21885984E+00
#rwgt            1           3   311.74780539184246         54217137    18535737           0
</event>
<event>
      6  10013  3.31628E+03  2.32872E+01 -1.00000E+00  1.61056E-01
      -1    -1     0     0     0   501  0.000000000E+00  0.000000000E+00  9.798195097E+01  9.798195097E+01  0.000000000E+00  0.00000E+00  9.000E+00
      21    -1     0     0   501   511  0.000000000E+00  0.000000000E+00 -3.734206183E+01  3.734206183E+01  0.000000000E+00  0.00000E+00  9.000E+00
      23     2     1     2     0     0 -9.183343584E+00 -2.139996307E+01  5.990124168E+01  1.120251326E+02  9.175608623E+01  0.00000E+00  9.000E+00
      13     1     3     3     0     0 -2.746716705E+01  2.074685578E+01 -2.526239305E+00  3.451478436E+01  1.056583668E-01  0.00000E+00  9.000E+00
     -13     1     3     3     0     0  1.828382347E+01 -4.214681884E+01  6.242748098E+01  7.751034824E+01  1.056583668E-01  0.00000E+00  9.000E+00
      -1     1     1     2     0   511  9.183343584E+00  2.139996307E+01  7.386474573E-01  2.329888020E+01  0.000000000E+00  0.00000E+00  9.000E+00
#pdf  -1  1 0.12818711E-01 0.38863212E-02 0.91756086E+02 0.47868402E+00 0.92238487E+00
#rwgt            1           5   596.53072605871944         54217137    18535795           0
</event>
<event>
      6  10013  3.31628E+03  1.35289E+01 -1.00000E+00  1.81664E-01
      -4    -1     0     0     0   511  0.000000000E+00  0.000000000E+00  4.349104858E+00  4.349104858E+00  0.000000000E+00  0.00000E+00  9.000E+00
       4    -1     0     0   501     0  0.000000000E+00  0.000000000E+00 -6.711008464E+02  6.711008464E+02  0.000000000E+00  0.00000E+00  9.000E+00
      23     2     1     2     0     0 -2.815365333E+00  1.323271799E+01 -6.255505283E+02  6.320843995E+02  8.963366284E+01  0.00000E+00  9.000E+00
      13     1     3     3     0     0  3.102564083E+01  1.303620683E+01 -5.232606197E+02  5.243417019E+02  1.056583668E-01  0.00000E+00  9.000E+00
     -13     1     3     3     0     0 -3.384100617E+01  1.965111589E-01 -1.022899086E+02  1.077426976E+02  1.056583668E-01  0.00000E+00  9.000E+00
      21     1     1     2   501   511  2.815365333E+00 -1.323271799E+01 -4.120121317E+01  4.336555170E+01  6.743495762E-07  0.00000E+00  9.000E+00
#pdf  -4  4 0.49697642E-03 0.95657671E-01 0.89633663E+02 0.15791429E+01 0.34741137E-01
#rwgt            1           2   61.891095254005677         54217137    18535834           0
</event>
<event>
      6  10013  3.31628E+03  5.96602E+01 -1.00000E+00  1.34808E-01
       3    -1     0     0   501     0  0.000000000E+00  0.000000000E+00  1.341543492E+01  1.341543492E+01  0.000000000E+00  0.00000E+00  9.000E+00
      21    -1     0     0   511   501  0.000000000E+00  0.000000000E+00 -5.808799153E+02  5.808799153E+02  0.000000000E+00  0.00000E+00  9.000E+00
      23     2     1     2     0     0 -5.188114316E+01  2.945648535E+01 -2.900335261E+02  3.105220746E+02  9.351564054E+01  0.00000E+00  9.000E+00
      13     1     3     3     0     0  4.938278521E+00  2.601792233E+01 -2.135222015E+02  2.151582222E+02  1.056583668E-01  0.00000E+00  9.000E+00
     -13     1     3     3     0     0 -5.681942168E+01  3.438563019E+00 -7.651132455E+01  9.536385240E+01  1.056583668E-01  0.00000E+00  9.000E+00
       3     1     1     2   511     0  5.188114316E+01 -2.945648535E+01 -2.774309543E+02  2.837732756E+02  0.000000000E+00  0.00000E+00  9.000E+00
#pdf   3 -3 0.13286784E-02 0.38945915E-01 0.93515641E+02 0.12599657E+01 0.19079592E+00
#rwgt            1           8   273.60073005475397         54217137    18535881           0
</event>
<event>
      6  10013  3.31628E+03  2.58330E+01 -1.00000E+00  1.57655E-01
       1    -1     0     0   501     0  0.000000000E+00  0.000000000E+00  1.045449442E+02  1.045449442E+02  0.000000000E+00  0.00000E+00  9.000E+00
      21    -1     0     0   511   501  0.000000000E+00  0.000000000E+00 -3.408955371E+01  3.408955371E+01  0.000000000E+00  0.00000E+00  9.000E+00
      23     2     1     2     0     0 -1.447805161E+01 -2.139464292E+01  5.867537929E+01  1.102423619E+02  8.968407606E+01  0.00000E+00  9.000E+00
      13     1     3     3     0     0  3.203851985E+01  1.036069504E+01  8.303610216E+00  3.468100146E+01  1.056583668E-01  0.00000E+00  9.000E+00
     -13     1     3     3     0     0 -4.651657146E+01 -3.175533795E+01  5.037176907E+01  7.556136044E+01  1.056583668E-01  0.00000E+00  9.000E+00
       1     1     1     2   511     0  1.447805161E+01  2.139464292E+01  1.178001123E+01  2.839213603E+01  0.000000000E+00  0.00000E+00  9.000E+00
#pdf   1 -1 0.12486012E-01 0.38117132E-02 0.89684076E+02 0.63163526E+00 0.83924336E+00
#rwgt            1           6   606.93560202810045         54217137    18535910           0
</event>
<event>
      6  10013  3.31628E+03  4.44303E+00 -1.00000E+00  2.53065E-01
      -2    -1     0     0     0   511  0.000000000E+00  0.000000000E+00  2.356950063E-01  2.356950063E-01  0.000000000E+00  0.00000E+00  9.000E+00
       2    -1     0     0   501     0  0.000000000E+00  0.000000000E+00 -9.530334033E+02  9.530334033E+02  0.000000000E+00  0.00000E+00  9.000E+00
      23     2     1     2     0     0  4.442712499E+00  5.333676152E-02 -8.924016507E+02  8.927098355E+02  2.303049461E+01  0.00000E+00  9.000E+00
      13     1     3     3     0     0 -7.831266362E+00 -5.065789609E+00 -4.892033369E+02  4.892922510E+02  1.056583668E-01  0.00000E+00  9.000E+00
     -13     1     3     3     0     0  1.227397886E+01  5.119126371E+00 -4.031983138E+02  4.034175845E+02  1.056583668E-01  0.00000E+00  9.000E+00
      21     1     1     2   501   511 -4.442712499E+00 -5.333676152E-02 -6.039605764E+01  6.055926285E+01  1.651812370E-06  0.00000E+00  9.000E+00
#pdf  -2  2 0.23277313E-04 0.13483014E+00 0.23030495E+02 0.35832970E+01 0.60678149E+00
#rwgt            1           4   3395.7335020771297         54217137    18535976           0
</event>
<event>
      6  10013  3.31628E+03  1.23847E+01 -1.00000E+00  1.85546E-01
       1    -1     0     0   501     0  0.000000000E+00  0.000000000E+00  1.399067786E+01  1.399067786E+01  0.000000000E+00  0.00000E+00  9.000E+00
      -1    -1     0     0     0   511  0.000000000E+00  0.000000000E+00 -1.892436428E+02  1.892436428E+02  0.000000000E+00  0.00000E+00  9.000E+00
      23     2     1     2     0     0 -1.436518713E+00 -1.230109976E+01 -1.343771464E+02  1.605235119E+02  8.693215611E+01  0.00000E+00  9.000E+00
      13     1     3     3     0     0  2.944795004E+01 -3.126617204E+01 -1.063893133E+02  1.147320898E+02  1.056583668E-01  0.00000E+00  9.000E+00
     -13     1     3     3     0     0 -3.088446875E+01  1.896507228E+01 -2.798783305E+01  4.579142212E+01  1.056583668E-01  0.00000E+00  9.000E+00
      21     1     1     2   501   511  1.436518713E+00  1.230109976E+01 -4.087581856E+01  4.271080875E+01  4.768371582E-07  0.00000E+00  9.000E+00
#pdf   1 -1 0.19911542E-02 0.22457908E-01 0.86932156E+02 0.11613842E+01 0.35464902E+00
#rwgt            1           6   441.03902439551587         54217137    18536210           0
</event>
<event>
      6  10013  3.31628E+03  4.29067E+00 -1.00000E+00  2.56390E-01
      21    -1     0     0   501   511  0.000000000E+00  0.000000000E+00  2.791793952E+01  2.791793952E+01  0.000000000E+00  0.00000E+00  9.000E+00
      -4    -1     0     0     0   501  0.000000000E+00  0.000000000E+00 -4.919836502E+01  4.919836502E+01  0.000000000E+00  0.00000E+00  9.000E+00
      23     2     1     2     0     0 -9.209095841E-01 -4.190680145E+00 -3.760169354E+01  6.024047373E+01  4.686808556E+01  0.00000E+00  9.000E+00
      13     1     3     3     0     0 -1.152094498E+01 -1.053307194E+01  4.595003528E+00  1.627276863E+01  1.056583668E-01  0.00000E+00  9.000E+00
     -13     1     3     3     0     0  1.060003540E+01  6.342391800E+00 -4.219669707E+01  4.396770510E+01  1.056583668E-01  0.00000E+00  9.000E+00
      -4     1     1     2     0   511  9.209095841E-01  4.190680145E+00  1.632126804E+01  1.687583080E+01  0.000000000E+00  0.00000E+00  9.000E+00
#pdf   4 -4 0.17341926E-02 0.74949783E-02 0.46868086E+02 0.79857699E+00 0.38025092E+00
#rwgt            1           9   159.01149726820736         54217137    18536245           0
</event>
<event>
      6  10013  3.31628E+03  9.88239E+00 -1.00000E+00  1.96294E-01
       5    -1     0     0   501     0  0.000000000E+00  0.000000000E+00  3.006375229E+00  3.006375229E+00  0.000000000E+00  0.00000E+00  9.000E+00
      21    -1     0     0   511   501  0.000000000E+00  0.000000000E+00 -1.444011283E+03  1.444011283E+03  0.000000000E+00  0.00000E+00  9.000E+00
      23     2     1     2     0     0  9.019543516E+00  4.038495204E+00 -5.527477079E+01  6.125228338E+01  2.447203146E+01  0.00000E+00  9.000E+00
      13     1     3     3     0     0 -2.684852910E-03  4.479288553E+00  7.160565072E-01  4.537392837E+00  1.056583668E-01  0.00000E+00  9.000E+00
     -13     1     3     3     0     0  9.022228369E+00 -4.407933485E-01 -5.599082730E+01  5.671489054E+01  1.056583668E-01  0.00000E+00  9.000E+00
       5     1     1     2   511     0 -9.019543516E+00 -4.038495204E+00 -1.385730137E+03  1.385765375E+03  0.000000000E+00  0.00000E+00  9.000E+00
#pdf   5 -5 0.42635714E-03 0.83115076E-02 0.24472031E+02 0.71960556E+00 0.16272842E+00
#rwgt            1          10   35.875320256892003         54217137    18536449           0
</event>
<event>
      6  10013  3.31628E+03  2.37913E+00 -1.00000E+00  3.31023E-01
      21    -1     0     0   501   511  0.000000000E+00  0.000000000E+00  2.020525560E+02  2.020525560E+02  0.000000000E+00  0.00000E+00  9.000E+00
      -2    -1     0     0     0   501  0.000000000E+00  0.000000000E+00 -1.187957028E+00  1.187957028E+00  0.000000000E+00  0.00000E+00  9.000E+00
      23     2     1     2     0     0 -1.233412341E+00 -2.034438781E+00  1.122105413E+02  1.145545378E+02  2.293199341E+01  0.00000E+00  9.000E+00
      13     1     3     3     0     0 -5.267303247E+00 -5.779254554E+00  1.285648273E+01  1.504807557E+01  1.056583668E-01  0.00000E+00  9.000E+00
     -13     1     3     3     0     0  4.033890906E+00  3.744815774E+00  9.935405852E+01  9.950646225E+01  1.056583668E-01  0.00000E+00  9.000E+00
      -2     1     1     2     0   511  1.233412341E+00  2.034438781E+00  8.865405769E+01  8.868597517E+01  0.000000000E+00  0.00000E+00  9.000E+00
#pdf   2 -2 0.17350343E-01 0.17934483E-03 0.22931993E+02 0.64146419E+00 0.19285309E+01
#rwgt            1           7   1084.0306629359177         54217137    18536667           0
</event>
<event>
      6  10013  3.31628E+03  6.94258E+00 -1.00000E+00  2.15989E-01
      21    -1     0     0   501   511  0.000000000E+00  0.000000000E+00  1.464145301E+01  1.464145301E+01  0.000000000E+00  0.00000E+00  9.000E+00
      -4    -1     0     0     0   501  0.000000000E+00  0.000000000E+00 -1.875258515E+02  1.875258515E+02  0.000000000E+00  0.00000E+00  9.000E+00
      23     2     1     2     0     0  5.518292779E+00 -4.212828873E+00 -1.380878014E+02  1.666848772E+02  9.309891457E+01  0.00000E+00  9.000E+00
      13     1     3     3     0     0 -4.202627240E+01 -1.343190996E+01 -5.496473003E+01  7.048231330E+01  1.056583668E-01  0.00000E+00  9.000E+00
     -13     1     3     3     0     0  4.754456518E+01  9.219081086E+00 -8.312307138E+01  9.620256386E+01  1.056583668E-01  0.00000E+00  9.000E+00
      -4     1     1     2     0   511 -5.518292779E+00  4.212828873E+00 -3.479659709E+01  3.548242736E+01  0.000000000E+00  0.00000E+00  9.000E+00
#pdf   4 -4 0.21936840E-02 0.23379137E-01 0.93098915E+02 0.82260316E+00 0.18390413E+00
#rwgt            1           9   182.84530414970337         54217137    18536772           0
</event>
<event>
      6  10013  3.31628E+03  1.58933E+01 -1.00000E+00  1.75003E-01
       2    -1     0     0   501     0  0.000000000E+00  0.000000000E+00  2.123689285E+01  2.123689285E+01  0.000000000E+00  0.00000E+00  9.000E+00
      21    -1     0     0   511   501  0.000000000E+00  0.000000000E+00 -1.460544354E+02  1.460544354E+02  0.000000000E+00  0.00000E+00  9.000E+00
      23     2     1     2     0     0  1.239176124E+01 -9.952004358E+00 -1.093680703E+02  1.451263936E+02  9.406219842E+01  0.00000E+00  9.000E+00
      13     1     3     3     0     0  5.242125686E+01  4.704228984E+00 -5.657124470E+01  7.726858891E+01  1.056583668E-01  0.00000E+00  9.000E+00
     -13     1     3     3     0     0 -4.002949562E+01 -1.465623334E+01 -5.279682563E+01  6.785780468E+01  1.056583668E-01  0.00000E+00  9.000E+00
       2     1     1     2   511     0 -1.239176124E+01  9.952004358E+00 -1.544947224E+01  2.216493469E+01  0.000000000E+00  0.00000E+00  9.000E+00
#pdf   2 -2 0.27121967E-02 0.19302891E-01 0.94062198E+02 0.10917950E+01 0.36181889E+00
#rwgt            1           7   396.61172508308027         54217137    18536946           0
</event>
<event>
      6  10013  3.31628E+03  1.21100E+01 -1.00000E+00  1.86560E-01
      -1    -1     0     0     0   501  0.000000000E+00  0.000000000E+00  1.132837855E+03  1.132837855E+03  0.000000000E+00  0.00000E+00  9.000E+00
       1    -1     0     0   511     0  0.000000000E+00  0.000000000E+00 -3.516628815E+00  3.516628815E+00  0.000000000E+00  0.00000E+00  9.000E+00
      23     2     1     2     0     0 -8.926476170E+00  8.183492516E+00  1.110706803E+03  1.114147542E+03  8.665154904E+01  0.00000E+00  9.000E+00
      13     1     3     3     0     0  1.312227045E+01 -1.665342100E+01  7.584152943E+01  7.874947087E+01  1.056583668E-01  0.00000E+00  9.000E+00
     -13     1     3     3     0     0 -2.204874662E+01  2.483691352E+01  1.034865274E+03  1.035398071E+03  1.056583668E-01  0.00000E+00  9.000E+00
      21     1     1     2   511   501  8.926476170E+00 -8.183492516E+00  1.861442314E+01  2.220694205E+01  1.238859277E-06  0.00000E+00  9.000E+00
#pdf  -1  1 0.16949540E+00 0.26212475E-03 0.86651549E+02 0.51831578E-01 0.24117145E+01
#rwgt            1           5   154.60583431895543         54217137    18537147           0
</event>
<event>
      6  10013  3.31628E+03  3.26215E+01 -1.00000E+00  1.50521E-01
      21    -1     0     0   501   511  0.000000000E+00  0.000000000E+00  4.669234723E+02  4.669234723E+02  0.000000000E+00  0.00000E+00  9.000E+00
      -3    -1     0     0     0   501  0.000000000E+00  0.000000000E+00 -9.089577095E+00  9.089577095E+00  0.000000000E+00  0.00000E+00  9.000E+00
      23     2     1     2     0     0 -2.807798763E+01 -1.660698359E+01  3.331524077E+02  3.471346625E+02  9.191181550E+01  0.00000E+00  9.000E+00
      13     1     3     3     0     0  2.444371331E+01 -3.109815991E+01  9.651711210E+01  1.043079803E+02  1.056583668E-01  0.00000E+00  9.000E+00
     -13     1     3     3     0     0 -5.252170094E+01  1.449117632E+01  2.366352956E+02  2.428266821E+02  1.056583668E-01  0.00000E+00  9.000E+00
      -3     1     1     2     0   511  2.807798763E+01  1.660698359E+01  1.246814874E+02  1.288783869E+02  0.000000000E+00  0.00000E+00  9.000E+00
#pdf   3 -3 0.49315733E-01 0.10136091E-02 0.91911816E+02 0.15239345E+00 0.14028405E+01
#rwgt            1           8   221.94921364391564         54217137    18537237           0
</event>
<event>
      6  10013 -3.31628E+03  1.64869E+00 -1.00000E+00  4.07093E-01
       4    -1     0     0   511     0  0.000000000E+00  0.000000000E+00  2.522240300E+00  2.522240300E+00  0.000000000E+00  0.00000E+00  9.000E+00
      -4    -1     0     0     0   501  0.000000000E+00  0.000000000E+00 -4.832198764E+01  4.832198764E+01  0.000000000E+00  0.00000E+00  9.000E+00
      23     2     1     2     0     0  1.573635139E+00  4.917778627E-01 -4.386675488E+01  4.830363099E+01  2.015515839E+01  0.00000E+00  9.000E+00
      13     1     3     3     0     0 -3.837316925E-01 -3.799998951E+00 -4.339386837E+01  4.356175178E+01  1.056583668E-01  0.00000E+00  9.000E+00
     -13     1     3     3     0     0  1.957366831E+00  4.291776814E+00 -4.728865129E-01  4.741879214E+00  1.056583668E-01  0.00000E+00  9.000E+00
      21     1     1     2   511   501 -1.573635139E+00 -4.917778627E-01 -1.932992451E+00  2.540596944E+00  4.214684851E-08  0.00000E+00  9.000E+00
#pdf   4 -4 0.34016201E-03 0.70664276E-02 0.20155158E+02 0.11616810E+01 0.33010555E+00
#rwgt            1           9  -1858.9161402247969         54217137    18537290           0
</event>
<event>
      6  10013  3.31628E+03  1.10527E+01 -1.00000E+00  1.90807E-01
       2    -1     0     0   511     0  0.000000000E+00  0.000000000E+00  4.508450331E+02  4.508450331E+02  0.000000000E+00  0.00000E+00  9.000E+00
      -2    -1     0     0     0   501  0.000000000E+00  0.000000000E+00 -1.161904396E+00  1.161904396E+00  0.000000000E+00  0.00000E+00  9.000E+00
      23     2     1     2     0     0  9.716090148E+00 -5.268853204E+00  1.383647122E+02  1.404923797E+02  2.170603530E+01  0.00000E+00  9.000E+00
      13     1     3     3     0     0 -4.588375701E+00 -2.092674219E+00  8.508524527E+01  8.523463265E+01  1.056583668E-01  0.00000E+00  9.000E+00
     -13     1     3     3     0     0  1.430446585E+01 -3.176178985E+00  5.327946691E+01  5.525774709E+01  1.056583668E-01  0.00000E+00  9.000E+00
      21     1     1     2   511   501 -9.716090148E+00  5.268853204E+00  3.113184165E+02  3.115145577E+02  3.814697266E-06  0.00000E+00  9.000E+00
#pdf   2 -2 0.19115080E-01 0.14584723E-03 0.21706035E+02 0.63477550E+00 0.20206199E+01
#rwgt            1           7   1210.0448131675780         54217137    18537502           0
</event>
<event>
      6  10013  3.31628E+03  1.88104E+01 -1.00000E+00  1.68554E-01
       1    -1     0     0   501     0  0.000000000E+00  0.000000000E+00  2.677483883E+02  2.677483883E+02  0.000000000E+00  0.00000E+00  9.000E+00
      21    -1     0     0   511   501  0.000000000E+00  0.000000000E+00 -1.817492752E+01  1.817492752E+01  0.000000000E+00  0.00000E+00  9.000E+00
      23     2     1     2     0     0  1.762075066E+01 -6.583226328E+00  2.496536705E+02  2.671127827E+02  9.310453134E+01  0.00000E+00  9.000E+00
      13     1     3     3     0     0 -9.678548084E+00  3.303060414E+01  4.376694638E+01  5.567990537E+01  1.056583668E-01  0.00000E+00  9.000E+00
     -13     1     3     3     0     0  2.729929874E+01 -3.961383047E+01  2.058867241E+02  2.114328773E+02  1.056583668E-01  0.00000E+00  9.000E+00
       1     1     1     2   511     0 -1.762075066E+01  6.583226328E+00 -8.020973955E-02  1.881053312E+01  0.000000000E+00  0.00000E+00  9.000E+00
#pdf   1 -1 0.38964001E-01 0.13164107E-02 0.93104531E+02 0.47183669E+00 0.13107873E+01
#rwgt            1           6   658.99434368228776         54217137    18537565           0
</event>
<event>
      6  10013  3.31628E+03  2.85162E+00 -1.00000E+00  3.03571E-01
      -1    -1     0     0     0   501  0.000000000E+00  0.000000000E+00  1.307955781E+00  1.307955781E+00  0.000000000E+00  0.00000E+00  9.000E+00
       1    -1     0     0   511     0  0.000000000E+00  0.000000000E+00 -2.571079380E+02  2.571079380E+02  0.000000000E+00  0.00000E+00  9.000E+00
      23     2     1     2     0     0 -4.972131205E-01  2.807933226E+00 -2.116327460E+02  2.141566974E+02  3.265792627E+01  0.00000E+00  9.000E+00
      13     1     3     3     0     0 -7.269895352E+00  1.115939525E+00 -2.026327202E+02  2.027661884E+02  1.056583668E-01  0.00000E+00  9.000E+00
     -13     1     3     3     0     0  6.772682232E+00  1.691993702E+00 -9.000025873E+00  1.139050906E+01  1.056583668E-01  0.00000E+00  9.000E+00
      21     1     1     2   511   501  4.972131205E-01 -2.807933226E+00 -4.416723621E+01  4.425919639E+01  0.000000000E+00  0.00000E+00  9.000E+00
#pdf  -1  1 0.19341418E-03 0.32628883E-01 0.32657926E+02 0.20949547E+01 0.48267231E+00
#rwgt            1           5   183.17778810058508         54217137    18537726           0
</event>
<event>
      6  10013  3.31628E+03  2.00425E+01 -1.00000E+00  1.66251E-01
       2    -1     0     0   501     0  0.000000000E+00  0.000000000E+00  7.423590268E+02  7.423590268E+02  0.000000000E+00  0.00000E+00  9.000E+00
      21    -1     0     0   511   501  0.000000000E+00  0.000000000E+00 -1.655435989E+00  1.655435989E+00  0.000000000E+00  0.00000E+00  9.000E+00
      23     2     1     2     0     0 -1.541309084E+01 -1.281166458E+01  2.666968942E+02  2.695842250E+02  3.386323761E+01  0.00000E+00  9.000E+00
      13     1     3     3     0     0 -1.790745041E+01 -1.783171335E+01  1.132709370E+02  1.160558620E+02  1.056583668E-01  0.00000E+00  9.000E+00
     -13     1     3     3     0     0  2.494359573E+00  5.020048773E+00  1.534259572E+02  1.535283629E+02  1.056583668E-01  0.00000E+00  9.000E+00
       2     1     1     2   511     0  1.541309084E+01  1.281166458E+01  4.740066966E+02  4.744302378E+02  0.000000000E+00  0.00000E+00  9.000E+00
#pdf   2 -2 0.35500389E-01 0.19113365E-03 0.33863238E+02 0.63209191E+00 0.21202654E+01
#rwgt            1           7   1731.5092024238068         54217137    18537852           0
</event>
<event>
      6  10013  3.31628E+03  2.42701E+00 -1.00000E+00  3.27746E-01
      -1    -1     0     0     0   511  0.000000000E+00  0.000000000E+00  4.032542189E+01  4.032542189E+01  0.000000000E+00  0.00000E+00  9.000E+00
       1    -1     0     0   501     0  0.000000000E+00  0.000000000E+00 -5.988068915E+01  5.988068915E+01  0.000000000E+00  0.00000E+00  9.000E+00
      23     2     1     2     0     0 -7.042455518E-01  2.322591218E+00 -2.154770705E+01  9.706601421E+01  9.461298559E+01  0.00000E+00  9.000E+00
      13     1     3     3     0     0  5.583160902E+00  1.286676868E+01  3.578389414E+01  3.843466750E+01  1.056583668E-01  0.00000E+00  9.000E+00
     -13     1     3     3     0     0 -6.287406454E+00 -1.054417746E+01 -5.733160119E+01  5.863134671E+01  1.056583668E-01  0.00000E+00  9.000E+00
      21     1     1     2   501   511  7.042455518E-01 -2.322591218E+00  1.992439791E+00  3.140096827E+00  5.960464478E-08  0.00000E+00  9.000E+00
#pdf  -1  1 0.58071902E-02 0.91211319E-02 0.94612986E+02 0.70026654E+00 0.69670829E+00
#rwgt            1           5   425.86770999377927         54217137    18537918           0
</event>
<event>
      6  10013  3.31628E+03  1.04448E+01 -1.00000E+00  1.93540E-01
      21    -1     0     0   511   501  0.000000000E+00  0.000000000E+00  2.858925200E+00  2.858925200E+00  0.000000000E+00  0.00000E+00  9.000E+00
       2    -1     0     0   501     0  0.000000000E+00  0.000000000E+00 -9.832553945E+01  9.832553945E+01  0.000000000E+00  0.00000E+00  9.000E+00
      23     2     1     2     0     0  1.036357886E+01 -1.300187074E+00 -6.696795985E+01  7.083207503E+01  2.057622301E+01  0.00000E+00  9.000E+00
      13     1     3     3     0     0  2.666721174E+00 -7.312660569E+00 -8.388798791E+00  1.144419133E+01  1.056583668E-01  0.00000E+00  9.000E+00
     -13     1     3     3     0     0  7.696857683E+00  6.012473495E+00 -5.857916106E+01  5.938788370E+01  1.056583668E-01  0.00000E+00  9.000E+00
       2     1     1     2   511     0 -1.036357886E+01  1.300187074E+00 -2.849865439E+01  3.035238961E+01  0.000000000E+00  0.00000E+00  9.000E+00
#pdf  -2  2 0.26504687E-03 0.94519614E-02 0.20576223E+02 0.16499070E+01 0.67845524E+00
#rwgt            1           4   1031.4029785720722         54217137    18538085           0
</event>
<event>
      6  10013  3.31628E+03  1.07319E+01 -1.00000E+00  1.92220E-01
      -4    -1     0     0     0   511  0.000000000E+00  0.000000000E+00  2.636974156E+02  2.636974156E+02  0.000000000E+00  0.00000E+00  9.000E+00
       4    -1     0     0   501     0  0.000000000E+00  0.000000000E+00 -9.835283988E+00  9.835283988E+00  0.000000000E+00  0.00000E+00  9.000E+00
      23     2     1     2     0     0 -1.067501919E+01 -1.103849548E+00  2.265538560E+02  2.441913220E+02  9.048523406E+01  0.00000E+00  9.000E+00
      13     1     3     3     0     0 -1.894009071E+01 -1.842721512E+01  1.241938508E+01  2.919831473E+01  1.056583668E-01  0.00000E+00  9.000E+00
     -13     1     3     3     0     0  8.265071523E+00  1.732336557E+01  2.141344709E+02  2.149930073E+02  1.056583668E-01  0.00000E+00  9.000E+00
      21     1     1     2   501   511  1.067501919E+01  1.103849548E+00  2.730827566E+01  2.934137758E+01  3.371747881E-07  0.00000E+00  9.000E+00
#pdf  -4  4 0.35959133E-01 0.13472851E-02 0.90485234E+02 0.12198307E+00 0.10291640E+01
#rwgt            1           2   146.71610022790065         54217137    18538157           0
</event>
<event>
      6  10013  3.31628E+03  2.66345E+00 -1.00000E+00  3.13328E-01
       1    -1     0     0   511     0  0.000000000E+00  0.000000000E+00  9.626693582E+01  9.626693582E+01  0.000000000E+00  0.00000E+00  9.000E+00
      -1    -1     0     0     0   501  0.000000000E+00  0.000000000E+00 -2.456722237E+01  2.456722237E+01  0.000000000E+00  0.00000E+00  9.000E+00
      23     2     1     2     0     0  2.436169546E+00  1.076592245E+00  5.669510142E+01  1.055949865E+02  8.904421748E+01  0.00000E+00  9.000E+00
      13     1     3     3     0     0  5.931118862E+00 -6.730057036E+00  8.013885678E+01  8.063944052E+01  1.056583668E-01  0.00000E+00  9.000E+00
     -13     1     3     3     0     0 -3.494949316E+00  7.806649280E+00 -2.344375536E+01  2.495554593E+01  1.056583668E-01  0.00000E+00  9.000E+00
      21     1     1     2   511   501 -2.436169546E+00 -1.076592245E+00  1.500461204E+01  1.523917174E+01  1.685873940E-07  0.00000E+00  9.000E+00
#pdf   1 -1 0.12478272E-01 0.37598480E-02 0.89044217E+02 0.63149641E+00 0.84355027E+00
#rwgt            1           6   1167.4244609452501         54217137    18538224           0
</event>
<event>
      6  10013  3.31628E+03  1.25404E+01 -1.00000E+00  1.84987E-01
      -2    -1     0     0     0   501  0.000000000E+00  0.000000000E+00  2.878516360E+01  2.878516360E+01  0.000000000E+00  0.00000E+00  9.000E+00
       2    -1     0     0   511     0  0.000000000E+00  0.000000000E+00 -2.202701351E+02  2.202701351E+02  0.000000000E+00  0.00000E+00  9.000E+00
      23     2     1     2     0     0 -9.151913376E+00 -8.573523111E+00 -4.421428105E+01  1.012516483E+02  9.022045673E+01  0.00000E+00  9.000E+00
      13     1     3     3     0     0  3.926250866E+00 -4.865622587E+01 -2.621020806E+01  5.540604599E+01  1.056583668E-01  0.00000E+00  9.000E+00
     -13     1     3     3     0     0 -1.307816424E+01  4.008270276E+01 -1.800407299E+01  4.584560228E+01  1.056583668E-01  0.00000E+00  9.000E+00
      21     1     1     2   511   501  9.151913376E+00  8.573523111E+00 -1.472706905E+02  1.478036504E+02  1.907348633E-06  0.00000E+00  9.000E+00
#pdf  -2  2 0.43457102E-02 0.11083134E-01 0.90220457E+02 0.77962716E+00 0.74661687E+00
#rwgt            1           4   543.58076656016419         54217137    18538423           0
</event>
<event>
      6  10013  3.31628E+03  2.23360E+00 -1.00000E+00  3.41884E-01
      21    -1     0     0   511   501  0.000000000E+00  0.000000000E+00  1.882183558E+02  1.882183558E+02  0.000000000E+00  0.00000E+00  9.000E+00
       3    -1     0     0   501     0  0.000000000E+00  0.000000000E+00 -1.130303014E+01  1.130303014E+01  0.000000000E+00  0.00000E+00  9.000E+00
      23     2     1     2     0     0  1.931576626E-01  2.225228850E+00  1.749602306E+02  1.965529941E+02  8.953774769E+01  0.00000E+00  9.000E+00
      13     1     3     3     0     0 -3.115752768E+01 -2.549027999E+01  1.253286212E+02  1.316351790E+02  1.056583668E-01  0.00000E+00  9.000E+00
     -13     1     3     3     0     0  3.135068534E+01  2.771550884E+01  4.963160938E+01  6.491781508E+01  1.056583668E-01  0.00000E+00  9.000E+00
       3     1     1     2   511     0 -1.931576626E-01 -2.225228850E+00  1.955095112E+00  2.968391857E+00  0.000000000E+00  0.00000E+00  9.000E+00
#pdf  -3  3 0.28569053E-01 0.16604652E-02 0.89537748E+02 0.24691925E+00 0.11408566E+01
#rwgt            1           3   270.13881475465291         54217137    18538518           0
</event>
<event>
      6  10013  3.31628E+03  4.88432E+00 -1.00000E+00  2.44483E-01
      21    -1     0     0   511   501  0.000000000E+00  0.000000000E+00  4.419072433E+00  4.419072433E+00  0.000000000E+00  0.00000E+00  9.000E+00
       2    -1     0     0   501     0  0.000000000E+00  0.000000000E+00 -2.004216100E+03  2.004216100E+03  0.000000000E+00  0.00000E+00  9.000E+00
      23     2     1     2     0     0  2.386705835E+00 -4.261479854E+00 -2.001417236E+03  2.003489140E+03  9.096111412E+01  0.00000E+00  9.000E+00
      13     1     3     3     0     0  5.506101371E+00  8.842091791E+00 -2.576681135E+01  2.779279530E+01  1.056583668E-01  0.00000E+00  9.000E+00
     -13     1     3     3     0     0 -3.119395536E+00 -1.310357164E+01 -1.975650425E+03  1.975696345E+03  1.056583668E-01  0.00000E+00  9.000E+00
       2     1     1     2   511     0 -2.386705835E+00  4.261479854E+00  1.620208500E+00  5.146032537E+00  0.000000000E+00  0.00000E+00  9.000E+00
#pdf  -2  2 0.15914794E-03 0.30762654E+00 0.90961114E+02 0.28874558E+01 0.33275608E+00
#rwgt            1           4   1845.0178309989312         54217137    18538641           0
</event>
<event>
      6  10013  3.31628E+03  5.37761E+01 -1.00000E+00  1.37267E-01
       5    -1     0     0   501     0  0.000000000E+00  0.000000000E+00  5.245035993E+02  5.245035993E+02  0.000000000E+00  0.00000E+00  9.000E+00
      21    -1     0     0   511   501  0.000000000E+00  0.000000000E+00 -2.234664582E+01  2.234664582E+01  0.000000000E+00  0.00000E+00  9.000E+00
      23     2     1     2     0     0  5.080549549E+01 -1.762585897E+01  1.174005145E+02  1.583539303E+02  9.165815385E+01  0.00000E+00  9.000E+00
      13     1     3     3     0     0  5.550109596E+01 -1.671523489E+01  1.313693018E+02  1.435885627E+02  1.056583668E-01  0.00000E+00  9.000E+00
     -13     1     3     3     0     0 -4.695600470E+00 -9.106240775E-01 -1.396878726E+01  1.476536762E+01  1.056583668E-01  0.00000E+00  9.000E+00
       5     1     1     2   511     0 -5.080549549E+01  1.762585897E+01  3.847564390E+02  3.884963148E+02  0.000000000E+00  0.00000E+00  9.000E+00
#pdf   5 -5 0.18295486E-01 0.27171371E-02 0.91658154E+02 0.13669464E+00 0.50612774E+00
#rwgt            1          10   89.383284895506577         54217137    18538766           0
</event>
<event>
      6  10013  3.31628E+03  9.63899E+01 -1.00000E+00  1.24527E-01
      -4    -1     0     0     0   501  0.000000000E+00  0.000000000E+00  2.605397016E+01  2.605397016E+01  0.000000000E+00  0.00000E+00  9.000E+00
      21    -1     0     0   501   511  0.000000000E+00  0.000000000E+00 -6.622987553E+02  6.622987553E+02  0.000000000E+00  0.00000E+00  9.000E+00
      23     2     1     2     0     0 -1.131407104E+01 -9.572362686E+01 -5.236761500E+02  5.401544847E+02  9.076968838E+01  0.00000E+00  9.000E+00
      13     1     3     3     0     0  1.871813189E+01 -3.487378055E+01 -6.226315927E+01  7.377846025E+01  1.056583668E-01  0.00000E+00  9.000E+00
     -13     1     3     3     0     0 -3.003220293E+01 -6.084984631E+01 -4.614129907E+02  4.663760245E+02  1.056583668E-01  0.00000E+00  9.000E+00
      -4     1     1     2     0   511  1.131407104E+01  9.572362686E+01 -1.125686351E+02  1.481982407E+02  0.000000000E+00  0.00000E+00  9.000E+00
#pdf  -4  4 0.86899626E-03 0.56101837E-01 0.90769688E+02 0.12511240E+01 0.73706947E-01
#rwgt            1           2   104.50853730365125         54217137    18538872           0
</event>
<event>
      6  10013  3.31628E+03  7.16545E+01 -1.00000E+00  1.30684E-01
      21    -1     0     0   511   501  0.000000000E+00  0.000000000E+00  3.603907526E+02  3.603907526E+02  0.000000000E+00  0.00000E+00  9.000E+00
       1    -1     0     0   501     0  0.000000000E+00  0.000000000E+00 -2.503175342E+01  2.503175342E+01  0.000000000E+00  0.00000E+00  9.000E+00
      23     2     1     2     0     0 -5.930644850E+01  4.021334425E+01  2.396397881E+02  2.658543863E+02  9.009416613E+01  0.00000E+00  9.000E+00
      13     1     3     3     0     0  1.158885325E+01 -1.928731961E+01  5.027812210E+01  5.508359958E+01  1.056583668E-01  0.00000E+00  9.000E+00
     -13     1     3     3     0     0 -7.089530175E+01  5.950066385E+01  1.893616660E+02  2.107707867E+02  1.056583668E-01  0.00000E+00  9.000E+00
       1     1     1     2   511     0  5.930644850E+01 -4.021334425E+01  9.571921109E+01  1.195681197E+02  0.000000000E+00  0.00000E+00  9.000E+00
#pdf  -1  1 0.30432651E-01 0.15782175E-02 0.90094166E+02 0.29735238E+00 0.12692586E+01
#rwgt            1           5   455.78292085084513         54217137    18538899           0
</event>
<event>
      6  10013  3.31628E+03  1.75238E+01 -1.00000E+00  1.71205E-01
      -5    -1     0     0     0   501  0.000000000E+00  0.000000000E+00  6.802778238E+02  6.802778238E+02  0.000000000E+00  0.00000E+00  9.000E+00
      21    -1     0     0   501   511  0.000000000E+00  0.000000000E+00 -4.383925127E+00  4.383925127E+00  0.000000000E+00  0.00000E+00  9.000E+00
      23     2     1     2     0     0  6.018417835E+00  1.645791959E+01  5.705332716E+02  5.778537614E+02  8.999817246E+01  0.00000E+00  9.000E+00
      13     1     3     3     0     0 -2.468205082E+01 -8.521294526E+00  4.546257398E+02  4.553750000E+02  1.056583668E-01  0.00000E+00  9.000E+00
     -13     1     3     3     0     0  3.070046866E+01  2.497921412E+01  1.159075318E+02  1.224787614E+02  1.056583668E-01  0.00000E+00  9.000E+00
      -5     1     1     2     0   511 -6.018417835E+00 -1.645791959E+01  1.053606271E+02  1.068079876E+02  0.000000000E+00  0.00000E+00  9.000E+00
#pdf  -5  5 0.86709046E-01 0.55273411E-03 0.89998172E+02 0.22267996E-01 0.11244502E+01
#rwgt            1           1   33.973348456854822         54217137    18538924           0
</event>
<event>
      6  10013  3.31628E+03  8.16483E+00 -1.00000E+00  2.06454E-01
      -1    -1     0     0     0   511  0.000000000E+00  0.000000000E+00  1.734803498E+00  1.734803498E+00  0.000000000E+00  0.00000E+00  9.000E+00
       1    -1     0     0   501     0  0.000000000E+00  0.000000000E+00 -2.332867564E+03  2.332867564E+03  0.000000000E+00  0.00000E+00  9.000E+00
      23     2     1     2     0     0 -6.474354366E+00  4.974656073E+00 -2.311554637E+03  2.313389932E+03  9.176860536E+01  0.00000E+00  9.000E+00
      13     1     3     3     0     0  2.184603529E+01  1.876520942E+01 -2.594375724E+02  2.610311236E+02  1.056583668E-01  0.00000E+00  9.000E+00
     -13     1     3     3     0     0 -2.832038966E+01 -1.379055334E+01 -2.052117064E+03  2.052358809E+03  1.056583668E-01  0.00000E+00  9.000E+00
      21     1     1     2   501   511  6.474354366E+00 -4.974656073E+00 -1.957812414E+01  2.121243532E+01  4.129530925E-07  0.00000E+00  9.000E+00
#pdf  -1  1 0.14062112E-03 0.35436515E+00 0.91768605E+02 0.30280843E+01 0.91850766E-01
#rwgt            1           5   504.56161217833431         54217137    18539131           0
</event>
<event>
      6  10013  3.31628E+03  1.89686E+00 -1.00000E+00  3.73924E-01
       2    -1     0     0   511     0  0.000000000E+00  0.000000000E+00  1.466909707E+03  1.466909707E+03  0.000000000E+00  0.00000E+00  9.000E+00
      -2    -1     0     0     0   501  0.000000000E+00  0.000000000E+00 -2.476822275E-01  2.476822275E-01  0.000000000E+00  0.00000E+00  9.000E+00
      23     2     1     2     0     0 -5.531436007E-01 -1.814418557E+00  1.257771388E+03  1.258258140E+03  3.494402680E+01  0.00000E+00  9.000E+00
      13     1     3     3     0     0  5.008098428E+00 -2.004521080E+00  3.046138100E+01  3.093551440E+01  1.056583668E-01  0.00000E+00  9.000E+00
     -13     1     3     3     0     0 -5.561242028E+00  1.901025236E-01  1.227310007E+03  1.227322625E+03  1.056583668E-01  0.00000E+00  9.000E+00
      21     1     1     2   511   501  5.531436007E-01  1.814418557E+00  2.088906369E+02  2.088992491E+02  3.814697266E-06  0.00000E+00  9.000E+00
#pdf   2 -2 0.19325622E+00 0.37387440E-04 0.34944027E+02 0.53448173E+00 0.36046326E+01
#rwgt            1           7   4025.7055053473441         54217137    18539327           0
</event>
<event>
      6  10013  3.31628E+03  2.19071E+01 -1.00000E+00  1.63130E-01
       2    -1     0     0   501     0  0.000000000E+00  0.000000000E+00  4.230147329E+02  4.230147329E+02  0.000000000E+00  0.00000E+00  9.000E+00
      21    -1     0     0   511   501  0.000000000E+00  0.000000000E+00 -8.551484029E+00  8.551484029E+00  0.000000000E+00  0.00000E+00  9.000E+00
      23     2     1     2     0     0  4.775072398E+00  2.138032288E+01  3.849549192E+02  3.948148763E+02  8.490334001E+01  0.00000E+00  9.000E+00
      13     1     3     3     0     0 -2.882216745E+01  2.856348416E+01  3.064008181E+02  3.090761434E+02  1.056583668E-01  0.00000E+00  9.000E+00
     -13     1     3     3     0     0  3.359723985E+01 -7.183161279E+00  7.855410120E+01  8.573873285E+01  1.056583668E-01  0.00000E+00  9.000E+00
       2     1     1     2   511     0 -4.775072398E+00 -2.138032288E+01  2.950832960E+01  3.675134064E+01  0.000000000E+00  0.00000E+00  9.000E+00
#pdf   2 -2 0.58080068E-01 0.73440518E-03 0.84903340E+02 0.62853001E+00 0.16146899E+01
#rwgt            1           7   842.15406077294210         54217137    18539461           0
</event>
<event>
      6  10013  3.31628E+03  1.12821E+02 -1.00000E+00  1.21495E-01
       2    -1     0     0   511     0  0.000000000E+00  0.000000000E+00  2.371567294E+03  2.371567294E+03  0.000000000E+00  0.00000E+00  9.000E+00
      -2    -1     0     0     0   501  0.000000000E+00  0.000000000E+00 -1.562443642E+01  1.562443642E+01  0.000000000E+00  0.00000E+00  9.000E+00
      23     2     1     2     0     0  7.583951105E+00 -1.125657566E+02  3.517152194E+02  3.797911746E+02  8.836953589E+01  0.00000E+00  9.000E+00
      13     1     3     3     0     0 -2.954953672E+01 -7.470556182E+01  2.752622307E+02  2.867462343E+02  1.056583668E-01  0.00000E+00  9.000E+00
     -13     1     3     3     0     0  3.713348782E+01 -3.786019477E+01  7.645298872E+01  9.304494030E+01  1.056583668E-01  0.00000E+00  9.000E+00
      21     1     1     2   511   501 -7.583951105E+00  1.125657566E+02  2.004227638E+03  2.007400555E+03  0.000000000E+00  0.00000E+00  9.000E+00
#pdf   2 -2 0.34697726E-01 0.13317338E-02 0.88369536E+02 0.64568230E+00 0.12858577E+01
#rwgt            1           7   802.33555867738312         54217137    18539511           0
</event>
<event>
      6  10013  3.31628E+03  1.89874E+00 -1.00000E+00  3.73710E-01
      -1    -1     0     0     0   511  0.000000000E+00  0.000000000E+00  4.847579237E+02  4.847579237E+02  0.000000000E+00  0.00000E+00  9.000E+00
       1    -1     0     0   501     0  0.000000000E+00  0.000000000E+00 -4.630206066E+00  4.630206066E+00  0.000000000E+00  0.00000E+00  9.000E+00
      23     2     1     2     0     0 -1.719956517E+00  8.043363159E-01  4.349451082E+02  4.441656419E+02  9.001258329E+01  0.00000E+00  9.000E+00
      13     1     3     3     0     0 -1.839375043E+01 -2.450740259E+00  4.229784161E+02  4.233852712E+02  1.056583668E-01  0.00000E+00  9.000E+00
     -13     1     3     3     0     0  1.667379391E+01  3.255076575E+00  1.196669207E+01  2.078037078E+01  1.056583668E-01  0.00000E+00  9.000E+00
      21     1     1     2   501   511  1.719956517E+00 -8.043363159E-01  4.518260948E+01  4.522248784E+01  4.768371582E-07  0.00000E+00  9.000E+00
#pdf  -1  1 0.67608864E-01 0.70911408E-03 0.90012583E+02 0.16872990E+00 0.16976226E+01
#rwgt            1           5   340.09550052107807         54217137    18539569           0
</event>
<event>
      6  10013  3.31628E+03  5.38548E+01 -1.00000E+00  1.37232E-01
       2    -1     0     0   501     0  0.000000000E+00  0.000000000E+00  5.889219884E+00  5.889219884E+00  0.000000000E+00  0.00000E+00  9.000E+00
      21    -1     0     0   511   501  0.000000000E+00  0.000000000E+00 -1.145684645E+03  1.145684645E+03  0.000000000E+00  0.00000E+00  9.000E+00
      23     2     1     2     0     0 -3.869360618E+01 -3.745860740E+01 -6.362797607E+02  6.451862992E+02  9.226637684E+01  0.00000E+00  9.000E+00
      13     1     3     3     0     0 -5.364685966E+01 -2.692522112E+01 -6.112250639E+02  6.141653222E+02  1.056583668E-01  0.00000E+00  9.000E+00
     -13     1     3     3     0     0  1.495325348E+01 -1.053338627E+01 -2.505469688E+01  3.102097703E+01  1.056583668E-01  0.00000E+00  9.000E+00
       2     1     1     2   511     0  3.869360618E+01  3.745860740E+01 -5.035156643E+02  5.063875656E+02  0.000000000E+00  0.00000E+00  9.000E+00
#pdf   2 -2 0.59169927E-03 0.85133247E-01 0.92266377E+02 0.18367871E+01 0.10525616E+00
#rwgt            1           7   201.11772018294394         54217137    18539783           0
</event>
<event>
      6  10013  3.31628E+03  1.00278E+01 -1.00000E+00  1.95560E-01
      -4    -1     0     0     0   501  0.000000000E+00  0.000000000E+00  2.578713052E+00  2.578713052E+00  0.000000000E+00  0.00000E+00  9.000E+00
       4    -1     0     0   511     0  0.000000000E+00  0.000000000E+00 -1.398042325E+02  1.398042325E+02  0.000000000E+00  0.00000E+00  9.000E+00
      23     2     1     2     0     0  7.449966979E+00 -6.712223500E+00 -5.472018879E+01  5.927045829E+01  2.044828140E+01  0.00000E+00  9.000E+00
      13     1     3     3     0     0  7.584032039E+00 -8.403091494E+00 -1.192745175E+01  1.644398849E+01  1.056583668E-01  0.00000E+00  9.000E+00
     -13     1     3     3     0     0 -1.340650605E-01  1.690867994E+00 -4.279273704E+01  4.282646980E+01  1.056583668E-01  0.00000E+00  9.000E+00
      21     1     1     2   511   501 -7.449966979E+00  6.712223500E+00 -8.250533067E+01  8.311248728E+01  9.536743164E-07  0.00000E+00  9.000E+00
#pdf  -4  4 0.31426601E-03 0.78728053E-02 0.20448281E+02 0.12005624E+01 0.31223953E+00
#rwgt            1           2   402.74919166907006         54217137    18539816           0
</event>
<event>
      6  10013  3.31628E+03  1.52113E+01 -1.00000E+00  1.76766E-01
       1    -1     0     0   511     0  0.000000000E+00  0.000000000E+00  2.039800641E+03  2.039800641E+03  0.000000000E+00  0.00000E+00  9.000E+00
      -1    -1     0     0     0   501  0.000000000E+00  0.000000000E+00 -1.567967976E+00  1.567967976E+00  0.000000000E+00  0.00000E+00  9.000E+00
      23     2     1     2     0     0 -2.537860713E-01  1.520923210E+01  1.488663715E+03  1.491589176E+03  9.212615732E+01  0.00000E+00  9.000E+00
      13     1     3     3     0     0 -2.913044787E+01 -2.858459892E+01  6.864426982E+02  6.876548926E+02  1.056583668E-01  0.00000E+00  9.000E+00
     -13     1     3     3     0     0  2.887666180E+01  4.379383101E+01  8.022210168E+02  8.039342835E+02  1.056583668E-01  0.00000E+00  9.000E+00
      21     1     1     2   511   501  2.537860713E-01 -1.520923210E+01  5.495689582E+02  5.497794330E+02  1.078959322E-05  0.00000E+00  9.000E+00
#pdf   1 -1 0.22618771E+00 0.22202926E-03 0.92126157E+02 0.20145708E+00 0.25716223E+01
#rwgt            1           6   922.53131695820457         54217137    18539904           0
</event>
<event>
      6  10013  3.31628E+03  5.80497E+00 -1.00000E+00  2.27644E-01
      -1    -1     0     0     0   511  0.000000000E+00  0.000000000E+00  1.052840922E+02  1.052840922E+02  0.000000000E+00  0.00000E+00  9.000E+00
       1    -1     0     0   501     0  0.000000000E+00  0.000000000E+00 -2.405065912E+01  2.405065912E+01  0.000000000E+00  0.00000E+00  9.000E+00
      23     2     1     2     0     0 -2.166403379E+00 -5.385575404E+00  6.400615172E+01  1.111557263E+02  9.069239392E+01  0.00000E+00  9.000E+00
      13     1     3     3     0     0 -1.071140952E+01  2.012835426E+01 -1.526711430E+01  2.744049711E+01  1.056583668E-01  0.00000E+00  9.000E+00
     -13     1     3     3     0     0  8.545006142E+00 -2.551392967E+01  7.927326601E+01  8.371522923E+01  1.056583668E-01  0.00000E+00  9.000E+00
      21     1     1     2   501   511  2.166403379E+00  5.385575404E+00  1.722728137E+01  1.817902499E+01  3.371747881E-07  0.00000E+00  9.000E+00
#pdf  -1  1 0.13446474E-01 0.36194835E-02 0.90692394E+02 0.46689995E+00 0.94437193E+00
#rwgt            1           5   523.40445100459317         54217137    18539983           0
</event>
<event>
      6  10013  3.31628E+03  8.26379E+00 -1.00000E+00  2.05781E-01
       2    -1     0     0   501     0  0.000000000E+00  0.000000000E+00  9.759723837E+00  9.759723837E+00  0.000000000E+00  0.00000E+00  9.000E+00
      -2    -1     0     0     0   511  0.000000000E+00  0.000000000E+00 -2.553985203E+02  2.553985203E+02  0.000000000E+00  0.00000E+00  9.000E+00
      23     2     1     2     0     0 -4.607022209E+00  6.860430758E+00 -2.177220060E+02  2.360440319E+02  9.080541250E+01  0.00000E+00  9.000E+00
      13     1     3     3     0     0 -2.631256441E+01 -3.513156346E+01 -1.025149500E+02  1.115163841E+02  1.056583668E-01  0.00000E+00  9.000E+00
     -13     1     3     3     0     0  2.170554220E+01  4.199199422E+01 -1.152070560E+02  1.245276478E+02  1.056583668E-01  0.00000E+00  9.000E+00
      21     1     1     2   501   511  4.607022209E+00 -6.860430758E+00 -2.791679045E+01  2.911421221E+01  4.768371582E-07  0.00000E+00  9.000E+00
#pdf   2 -2 0.14035863E-02 0.34761430E-01 0.90805413E+02 0.13536596E+01 0.24348120E+00
#rwgt            1           7   349.33860535673119         54217137    18540122           0
</event>
<event>
      6  10013  3.31628E+03  5.20068E+00 -1.00000E+00  2.35482E-01
       2    -1     0     0   501     0  0.000000000E+00  0.000000000E+00  1.473591364E+03  1.473591364E+03  0.000000000E+00  0.00000E+00  9.000E+00
      -2    -1     0     0     0   511  0.000000000E+00  0.000000000E+00 -2.283694544E+00  2.283694544E+00  0.000000000E+00  0.00000E+00  9.000E+00
      23     2     1     2     0     0 -5.072219078E+00  1.148760659E+00  1.465099291E+03  1.467776231E+03  8.845384209E+01  0.00000E+00  9.000E+00
      13     1     3     3     0     0 -3.492328258E+01 -2.621612598E+01  5.281570283E+02  5.299592236E+02  1.056583668E-01  0.00000E+00  9.000E+00
     -13     1     3     3     0     0  2.985106350E+01  2.736488664E+01  9.369422631E+02  9.378170070E+02  1.056583668E-01  0.00000E+00  9.000E+00
      21     1     1     2   501   511  5.072219078E+00 -1.148760659E+00  6.208378129E+00  8.098828089E+00  8.429369702E-08  0.00000E+00  9.000E+00
#pdf   2 -2 0.22521687E+00 0.20556339E-03 0.88453842E+02 0.45594606E+00 0.26168895E+01
#rwgt            1           7   1885.3684023689682         54217137    18540204           0
</event>
<event>
      6  10013  3.31628E+03  8.83998E+00 -1.00000E+00  2.02096E-01
      -2    -1     0     0     0   501  0.000000000E+00  0.000000000E+00  3.378807233E+01  3.378807233E+01  0.000000000E+00  0.00000E+00  9.000E+00
       2    -1     0     0   511     0  0.000000000E+00  0.000000000E+00 -8.722278744E+01  8.722278744E+01  0.000000000E+00  0.00000E+00  9.000E+00
      23     2     1     2     0     0 -1.315746796E+00  8.741511875E+00 -2.657468780E+01  9.273354931E+01  8.840334788E+01  0.00000E+00  9.000E+00
      13     1     3     3     0     0  1.461397093E+01 -2.066668097E+01  2.214962317E+01  3.363475612E+01  1.056583668E-01  0.00000E+00  9.000E+00
     -13     1     3     3     0     0 -1.592971772E+01  2.940819285E+01 -4.872431097E+01  5.909879319E+01  1.056583668E-01  0.00000E+00  9.000E+00
      21     1     1     2   511   501  1.315746796E+00 -8.741511875E+00 -2.686002731E+01  2.827731046E+01  0.000000000E+00  0.00000E+00  9.000E+00
#pdf  -2  2 0.50638888E-02 0.91320139E-02 0.88403348E+02 0.72545264E+00 0.77616560E+00
#rwgt            1           4   554.39597499374031         54217137    18540314           0
</event>
<event>
      6  10013  3.31628E+03  6.75807E+00 -1.00000E+00  2.17663E-01
       2    -1     0     0   501     0  0.000000000E+00  0.000000000E+00  1.540567267E+03  1.540567267E+03  0.000000000E+00  0.00000E+00  9.000E+00
      21    -1     0     0   511   501  0.000000000E+00  0.000000000E+00 -2.435126717E-01  2.435126717E-01  0.000000000E+00  0.00000E+00  9.000E+00
      23     2     1     2     0     0  6.560612958E+00 -1.621684515E+00  8.474599990E+02  8.479140666E+02  2.690990473E+01  0.00000E+00  9.000E+00
      13     1     3     3     0     0  1.620277412E+01  1.540422344E+00  6.389468820E+02  6.391541535E+02  1.056583668E-01  0.00000E+00  9.000E+00
     -13     1     3     3     0     0 -9.642161167E+00 -3.162106859E+00  2.085131170E+02  2.087599131E+02  1.056583668E-01  0.00000E+00  9.000E+00
       2     1     1     2   511     0 -6.560612958E+00  1.621684515E+00  6.928637555E+02  6.928967132E+02  0.000000000E+00  0.00000E+00  9.000E+00
#pdf   2 -2 0.12648566E+00 0.33876326E-04 0.26909905E+02 0.60827504E+00 0.33955444E+01
#rwgt            1           7   2257.7449084497393         54217137    18540472           0
</event>
<event>
      6  10013  3.31628E+03  1.40079E+00 -1.00000E+00  4.68961E-01
       2    -1     0     0   501     0  0.000000000E+00  0.000000000E+00  2.503523817E+01  2.503523817E+01  0.000000000E+00  0.00000E+00  9.000E+00
      -2    -1     0     0     0   511  0.000000000E+00  0.000000000E+00 -1.221327447E+02  1.221327447E+02  0.000000000E+00  0.00000E+00  9.000E+00
      23     2     1     2     0     0  4.666494982E-01 -1.320779961E+00 -5.507818293E+01  1.051253167E+02  8.953079782E+01  0.00000E+00  9.000E+00
      13     1     3     3     0     0 -3.682001361E+00  4.051714652E+01 -7.042785743E+00  4.128932418E+01  1.056583668E-01  0.00000E+00  9.000E+00
     -13     1     3     3     0     0  4.148650859E+00 -4.183792649E+01 -4.803539719E+01  6.383599254E+01  1.056583668E-01  0.00000E+00  9.000E+00
      21     1     1     2   501   511 -4.666494982E-01  1.320779961E+00 -4.201932359E+01  4.204266615E+01  4.768371582E-07  0.00000E+00  9.000E+00
#pdf   2 -2 0.38493084E-02 0.12321838E-01 0.89530798E+02 0.97410685E+00 0.46677599E+00
#rwgt            1           7   431.11826998604914         54217137    18540517           0
</event>
<event>
      6  10013  3.31628E+03  2.09060E+00 -1.00000E+00  3.54122E-01
      -1    -1     0     0     0   511  0.000000000E+00  0.000000000E+00  1.857458207E+01  1.857458207E+01  0.000000000E+00  0.00000E+00  9.000E+00
       1    -1     0     0   501     0  0.000000000E+00  0.000000000E+00 -1.504813349E+02  1.504813349E+02  0.000000000E+00  0.00000E+00  9.000E+00
      23     2     1     2     0     0 -1.893760169E-01 -2.082004709E+00 -1.327645365E+02  1.667961825E+02  1.009463904E+02  0.00000E+00  9.000E+00
      13     1     3     3     0     0 -4.305088569E+00 -5.022297563E+01 -8.520765296E+01  9.900119371E+01  1.056583668E-01  0.00000E+00  9.000E+00
     -13     1     3     3     0     0  4.115712552E+00  4.814097092E+01 -4.755688356E+01  6.779498882E+01  1.056583668E-01  0.00000E+00  9.000E+00
      21     1     1     2   501   511  1.893760169E-01  2.082004709E+00  8.577836884E-01  2.259734440E+00  1.053671213E-08  0.00000E+00  9.000E+00
#pdf  -1  1 0.26172577E-02 0.23038192E-01 0.10094639E+03 0.99948965E+00 0.53693151E+00
#rwgt            1           5   856.68042232400376         54217137    18540664           0
</event>
<event>
      6  10013  3.31628E+03  1.28695E+01 -1.00000E+00  1.83838E-01
      -2    -1     0     0     0   511  0.000000000E+00  0.000000000E+00  2.150439232E+01  2.150439232E+01  0.000000000E+00  0.00000E+00  9.000E+00
       2    -1     0     0   501     0  0.000000000E+00  0.000000000E+00 -8.522228101E+01  8.522228101E+01  0.000000000E+00  0.00000E+00  9.000E+00
      23     2     1     2     0     0 -1.110895446E+01  6.497405129E+00 -7.766789110E+01  8.774700764E+01  3.875062450E+01  0.00000E+00  9.000E+00
      13     1     3     3     0     0 -1.906081965E+01 -2.699457353E+00 -1.641626731E+01  2.530033423E+01  1.056583668E-01  0.00000E+00  9.000E+00
     -13     1     3     3     0     0  7.951865199E+00  9.196862482E+00 -6.125162379E+01  6.244667341E+01  1.056583668E-01  0.00000E+00  9.000E+00
      21     1     1     2   501   511  1.110895446E+01 -6.497405129E+00  1.395000241E+01  1.897966569E+01  0.000000000E+00  0.00000E+00  9.000E+00
#pdf  -2  2 0.73579914E-03 0.12075675E-01 0.38750624E+02 0.13835929E+01 0.69442793E+00
#rwgt            1           4   1278.2457143988690         54217137    18540833           0
</event>
<event>
      6  10013  3.31628E+03  3.07761E+01 -1.00000E+00  1.52239E-01
       2    -1     0     0   501     0  0.000000000E+00  0.000000000E+00  2.731414780E+03  2.731414780E+03  0.000000000E+00  0.00000E+00  9.000E+00
      21    -1     0     0   511   501  0.000000000E+00  0.000000000E+00 -1.773852615E+00  1.773852615E+00  0.000000000E+00  0.00000E+00  9.000E+00
      23     2     1     2     0     0  2.579383588E+01  1.678833439E+01  2.446740532E+03  2.448619126E+03  9.082524573E+01  0.00000E+00  9.000E+00
      13     1     3     3     0     0  1.761332939E+01  5.285539572E+01  1.146659129E+03  1.148011799E+03  1.056583668E-01  0.00000E+00  9.000E+00
     -13     1     3     3     0     0  8.180506487E+00 -3.606706133E+01  1.300081403E+03  1.300607327E+03  1.056583668E-01  0.00000E+00  9.000E+00
       2     1     1     2   511     0 -2.579383588E+01 -1.678833439E+01  2.829003958E+02  2.845695066E+02  0.000000000E+00  0.00000E+00  9.000E+00
#pdf   2 -2 0.35664736E+00 0.13686344E-03 0.90825246E+02 0.26354644E+00 0.30462254E+01
#rwgt            1           7   1411.9156429166790         54217137    18540925           0
</event>
<event>
      6  10013  3.31628E+03  5.78648E+00 -1.00000E+00  2.27864E-01
      -2    -1     0     0     0   511  0.000000000E+00  0.000000000E+00  3.511398672E+00  3.511398672E+00  0.000000000E+00  0.00000E+00  9.000E+00
       2    -1     0     0   501     0  0.000000000E+00  0.000000000E+00 -1.248512600E+02  1.248512600E+02  0.000000000E+00  0.00000E+00  9.000E+00
      23     2     1     2     0     0 -5.780145898E+00 -2.705739217E-01 -1.187758568E+02  1.220335658E+02  2.740444715E+01  0.00000E+00  9.000E+00
      13     1     3     3     0     0 -9.890758673E+00  7.614204112E+00 -1.043014190E+02  1.050457061E+02  1.056583668E-01  0.00000E+00  9.000E+00
     -13     1     3     3     0     0  4.110612775E+00 -7.884778034E+00 -1.447443786E+01  1.698785970E+01  1.056583668E-01  0.00000E+00  9.000E+00
      21     1     1     2   501   511  5.780145898E+00  2.705739217E-01 -2.564004436E+00  6.329092795E+00  2.107342426E-07  0.00000E+00  9.000E+00
#pdf  -2  2 0.24518681E-03 0.18124177E-01 0.27404447E+02 0.18414394E+01 0.64704908E+00
#rwgt            1           4   1444.5261099729282         54217137    18540976           0
</event>
<event>
      6  10013  3.31628E+03  5.28675E+00 -1.00000E+00  2.34276E-01
       2    -1     0     0   501     0  0.000000000E+00  0.000000000E+00  1.813012927E+02  1.813012927E+02  0.000000000E+00  0.00000E+00  9.000E+00
      -2    -1     0     0     0   511  0.000000000E+00  0.000000000E+00 -1.498871880E+00  1.498871880E+00  0.000000000E+00  0.00000E+00  9.000E+00
      23     2     1     2     0     0 -4.726701229E+00 -2.368130263E+00  1.669264383E+02  1.688810888E+02  2.506863769E+01  0.00000E+00  9.000E+00
      13     1     3     3     0     0  8.868831524E+00 -2.861724895E+00  3.380167869E+01  3.506294750E+01  1.056583668E-01  0.00000E+00  9.000E+00
     -13     1     3     3     0     0 -1.359553275E+01  4.935946314E-01  1.331247596E+02  1.338181413E+02  1.056583668E-01  0.00000E+00  9.000E+00
      21     1     1     2   501   511  4.726701229E+00  2.368130263E+00  1.287598250E+01  1.391907579E+01  2.384185791E-07  0.00000E+00  9.000E+00
#pdf   2 -2 0.25275400E-01 0.14712170E-03 0.25068638E+02 0.63135676E+00 0.21101174E+01
#rwgt            1           7   1339.8288426126051         54217137    18541058           0
</event>
<event>
      6  10013  3.31628E+03  6.15794E+00 -1.00000E+00  2.23656E-01
       4    -1     0     0   511     0  0.000000000E+00  0.000000000E+00  2.522822718E+01  2.522822718E+01  0.000000000E+00  0.00000E+00  9.000E+00
      -4    -1     0     0     0   501  0.000000000E+00  0.000000000E+00 -9.613161115E+01  9.613161115E+01  0.000000000E+00  0.00000E+00  9.000E+00
      23     2     1     2     0     0  2.892846384E+00  5.436149354E+00 -6.829130939E+01  1.146708015E+02  9.191174844E+01  0.00000E+00  9.000E+00
      13     1     3     3     0     0  1.164173141E+01  4.107410947E+01 -7.040896401E+00  4.326890066E+01  1.056583668E-01  0.00000E+00  9.000E+00
     -13     1     3     3     0     0 -8.748885022E+00 -3.563796011E+01 -6.125041299E+01  7.140190085E+01  1.056583668E-01  0.00000E+00  9.000E+00
      21     1     1     2   511   501 -2.892846384E+00 -5.436149354E+00 -2.612074576E+00  6.689036821E+00  8.940696716E-08  0.00000E+00  9.000E+00
#pdf   4 -4 0.35596729E-02 0.14042527E-01 0.91911748E+02 0.64249075E+00 0.27608638E+00
#rwgt            1           9   178.06672240134350         54217137    18541219           0
</event>
<event>
      6  10013  3.31628E+03  8.88520E+00 -1.00000E+00  2.01822E-01
      21    -1     0     0   511   501  0.000000000E+00  0.000000000E+00  5.253709636E+01  5.253709636E+01  0.000000000E+00  0.00000E+00  9.000E+00
       1    -1     0     0   501     0  0.000000000E+00  0.000000000E+00 -5.321715513E+01  5.321715513E+01  0.000000000E+00  0.00000E+00  9.000E+00
      23     2     1     2     0     0 -6.801085610E-01  8.859136586E+00 -1.027775400E+01  9.267516122E+01  9.167391358E+01  0.00000E+00  9.000E+00
      13     1     3     3     0     0 -1.664986558E+01  3.426469772E+01 -3.654808124E+01  5.279262202E+01  1.056583668E-01  0.00000E+00  9.000E+00
     -13     1     3     3     0     0  1.596975701E+01 -2.540556114E+01  2.627032724E+01  3.988253920E+01  1.056583668E-01  0.00000E+00  9.000E+00
       1     1     1     2   511     0  6.801085610E-01 -8.859136586E+00  9.597695229E+00  1.307909028E+01  0.000000000E+00  0.00000E+00  9.000E+00
#pdf  -1  1 0.63086999E-02 0.78825180E-02 0.91673914E+02 0.67233947E+00 0.72792903E+00
#rwgt            1           5   720.77961396759417         54217137    18541381           0
</event>
<event>
      6  10013  3.31628E+03  5.01811E+00 -1.00000E+00  2.38154E-01
      21    -1     0     0   511   501  0.000000000E+00  0.000000000E+00  1.885920819E+01  1.885920819E+01  0.000000000E+00  0.00000E+00  9.000E+00
       2    -1     0     0   501     0  0.000000000E+00  0.000000000E+00 -1.462313101E+02  1.462313101E+02  0.000000000E+00  0.00000E+00  9.000E+00
      23     2     1     2     0     0 -4.185499170E+00  2.768220986E+00 -1.301944283E+02  1.593331772E+02  9.171308939E+01  0.00000E+00  9.000E+00
      13     1     3     3     0     0 -3.937956657E+01  2.475294718E+01 -4.574169993E+01  6.523628541E+01  1.056583668E-01  0.00000E+00  9.000E+00
     -13     1     3     3     0     0  3.519406740E+01 -2.198472619E+01 -8.445272834E+01  9.409689183E+01  1.056583668E-01  0.00000E+00  9.000E+00
       2     1     1     2   511     0  4.185499170E+00 -2.768220986E+00  2.822326316E+00  5.757341102E+00  0.000000000E+00  0.00000E+00  9.000E+00
#pdf  -2  2 0.22380946E-02 0.22238091E-01 0.91713089E+02 0.10437702E+01 0.67149626E+00
#rwgt            1           4   607.93245191600386         54217137    18541449           0
</event>
<event>
      6  10013  3.31628E+03  2.16923E+00 -1.00000E+00  3.47179E-01
      -2    -1     0     0     0   501  0.000000000E+00  0.000000000E+00  1.379989470E-01  1.379989470E-01  0.000000000E+00  0.00000E+00  9.000E+00
       2    -1     0     0   511     0  0.000000000E+00  0.000000000E+00 -1.470449694E+03  1.470449694E+03  0.000000000E+00  0.00000E+00  9.000E+00
      23     2     1     2     0     0 -2.167177240E+00  9.440108279E-02 -1.155217477E+03  1.155486008E+03  2.481511808E+01  0.00000E+00  9.000E+00
      13     1     3     3     0     0 -8.113011156E+00  1.029012780E+01 -6.156731431E+02  6.158125835E+02  1.056583668E-01  0.00000E+00  9.000E+00
     -13     1     3     3     0     0  5.945833916E+00 -1.019572672E+01 -5.395443336E+02  5.396734242E+02  1.056583668E-01  0.00000E+00  9.000E+00
      21     1     1     2   511   501  2.167177240E+00 -9.440108279E-02 -3.150942186E+02  3.151016854E+02  0.000000000E+00  0.00000E+00  9.000E+00
#pdf  -2  2 0.20577762E-04 0.17707116E+00 0.24815118E+02 0.38236470E+01 0.56660570E+00
#rwgt            1           4   3592.7154474790609         54217137    18541614           0
</event>
<event>
      6  10013  3.31628E+03  4.10025E+00 -1.00000E+00  2.60857E-01
      -2    -1     0     0     0   511  0.000000000E+00  0.000000000E+00  2.148981692E+00  2.148981692E+00  0.000000000E+00  0.00000E+00  9.000E+00
       2    -1     0     0   501     0  0.000000000E+00  0.000000000E+00 -1.067576372E+03  1.067576372E+03  0.000000000E+00  0.00000E+00  9.000E+00
      23     2     1     2     0     0 -4.098706342E+00  1.124517828E-01 -1.061669410E+03  1.064163479E+03  7.269910920E+01  0.00000E+00  9.000E+00
      13     1     3     3     0     0  2.239302605E+01 -2.476656404E+01 -3.571595366E+02  3.587168467E+02  1.056583668E-01  0.00000E+00  9.000E+00
     -13     1     3     3     0     0 -2.649173239E+01  2.487901583E+01 -7.045098737E+02  7.054466320E+02  1.056583668E-01  0.00000E+00  9.000E+00
      21     1     1     2   501   511  4.098706342E+00 -1.124517828E-01 -3.757979672E+00  5.561874711E+00  3.237360862E-07  0.00000E+00  9.000E+00
#pdf  -2  2 0.19154700E-03 0.16326614E+00 0.72699109E+02 0.25693907E+01 0.54543077E+00
#rwgt            1           4   2144.4361480056150         54217137    18541898           0
</event>
<event>
      6  10013  3.31628E+03  3.63870E+00 -1.00000E+00  2.73432E-01
       1    -1     0     0   511     0  0.000000000E+00  0.000000000E+00  1.964691829E+02  1.964691829E+02  0.000000000E+00  0.00000E+00  9.000E+00
      -1    -1     0     0     0   501  0.000000000E+00  0.000000000E+00 -2.310923270E+01  2.310923270E+01  0.000000000E+00  0.00000E+00  9.000E+00
      23     2     1     2     0     0 -2.662175735E-01 -3.628947348E+00  6.844746230E+01  1.146028458E+02  9.184507088E+01  0.00000E+00  9.000E+00
      13     1     3     3     0     0 -1.842066484E+01 -1.733711306E+01  8.355113697E+01  8.729662098E+01  1.056583668E-01  0.00000E+00  9.000E+00
     -13     1     3     3     0     0  1.815444727E+01  1.370816571E+01 -1.510367467E+01  2.730622484E+01  1.056583668E-01  0.00000E+00  9.000E+00
      21     1     1     2   511   501  2.662175735E-01  3.628947348E+00  1.049124880E+02  1.049755698E+02  1.907348633E-06  0.00000E+00  9.000E+00
#pdf   1 -1 0.14069756E-01 0.35476311E-02 0.91845071E+02 0.61108334E+00 0.86802820E+00
#rwgt            1           6   971.81411923269684         54217137    18542051           0
</event>
<event>
      6  10013 -3.31628E+03  4.24105E+00 -1.00000E+00  2.57519E-01
      -4    -1     0     0     0   501  0.000000000E+00  0.000000000E+00  1.390776707E+02  1.390776707E+02  0.000000000E+00  0.00000E+00  9.000E+00
       4    -1     0     0   511     0  0.000000000E+00  0.000000000E+00 -4.947780537E+00  4.947780537E+00  0.000000000E+00  0.00000E+00  9.000E+00
      23     2     1     2     0     0  6.922865600E-01  4.184168079E+00  1.350872516E+02  1.396776858E+02  3.526051404E+01  0.00000E+00  9.000E+00
      13     1     3     3     0     0  1.399322025E+01  1.283866567E+01  8.666836582E+01  8.872462086E+01  1.056583668E-01  0.00000E+00  9.000E+00
     -13     1     3     3     0     0 -1.330093369E+01 -8.654497592E+00  4.841888580E+01  5.095306498E+01  1.056583668E-01  0.00000E+00  9.000E+00
      21     1     1     2   511   501 -6.922865600E-01 -4.184168079E+00 -9.573614316E-01  4.347765416E+00  4.712160915E-08  0.00000E+00  9.000E+00
#pdf  -4  4 0.20984521E-01 0.35058353E-03 0.35260514E+02 0.18042888E+00 0.14042552E+01
#rwgt            1           2  -771.53137411386740         54217137    18542150           0
</event>
<event>
      6  10013  3.31628E+03  3.07248E+01 -1.00000E+00  1.52288E-01
      -1    -1     0     0     0   501  0.000000000E+00  0.000000000E+00  2.977237961E+01  2.977237961E+01  0.000000000E+00  0.00000E+00  9.000E+00
      21    -1     0     0   501   511  0.000000000E+00  0.000000000E+00 -4.720366272E+01  4.720366272E+01  0.000000000E+00  0.00000E+00  9.000E+00
      23     2     1     2     0     0 -2.776762321E+01 -1.315193435E+01  1.824203107E+00  4.071603647E+01  2.665433611E+01  0.00000E+00  9.000E+00
      13     1     3     3     0     0 -3.249910661E+01 -1.076364928E+01 -1.819098564E+00  3.428364566E+01  1.056583668E-01  0.00000E+00  9.000E+00
     -13     1     3     3     0     0  4.731483407E+00 -2.388285065E+00  3.643301670E+00  6.432390810E+00  1.056583668E-01  0.00000E+00  9.000E+00
      -1     1     1     2     0   511  2.776762321E+01  1.315193435E+01 -1.925548622E+01  3.626000586E+01  0.000000000E+00  0.00000E+00  9.000E+00
#pdf  -1  1 0.21443480E-02 0.19604409E-02 0.26654336E+02 0.87987153E+00 0.96568304E+00
#rwgt            1           5   233.29945454510997         54217137    18542205           0
</event>
<event>
      6  10013  3.31628E+03  1.11033E+01 -1.00000E+00  1.90590E-01
      -2    -1     0     0     0   511  0.000000000E+00  0.000000000E+00  8.112741986E+02  8.112741986E+02  0.000000000E+00  0.00000E+00  9.000E+00
       2    -1     0     0   501     0  0.000000000E+00  0.000000000E+00 -3.095739442E+00  3.095739442E+00  0.000000000E+00  0.00000E+00  9.000E+00
      23     2     1     2     0     0 -4.149735398E+00 -1.029873603E+01  2.234669150E+02  2.295529802E+02  5.132079857E+01  0.00000E+00  9.000E+00
      13     1     3     3     0     0 -1.219337895E+01 -1.595132824E+01  2.166751875E+02  2.176034728E+02  1.056583668E-01  0.00000E+00  9.000E+00
     -13     1     3     3     0     0  8.043643556E+00  5.652592206E+00  6.791727517E+00  1.194950738E+01  1.056583668E-01  0.00000E+00  9.000E+00
      21     1     1     2   501   511  4.149735398E+00  1.029873603E+01  5.847115442E+02  5.848169579E+02  1.078959322E-05  0.00000E+00  9.000E+00
#pdf  -2  2 0.34059666E-01 0.45757229E-03 0.51320799E+02 0.24470852E+00 0.17887300E+01
#rwgt            1           4   924.68276582499220         54217137    18542277           0
</event>
<event>
      6  10013  3.31628E+03  2.07658E+01 -1.00000E+00  1.64993E-01
      -1    -1     0     0     0   511  0.000000000E+00  0.000000000E+00  5.400352422E+01  5.400352422E+01  0.000000000E+00  0.00000E+00  9.000E+00
       1    -1     0     0   501     0  0.000000000E+00  0.000000000E+00 -9.977202482E+01  9.977202482E+01  0.000000000E+00  0.00000E+00  9.000E+00
      23     2     1     2     0     0  1.955567773E+01  6.985328498E+00 -9.462238238E+01  1.006914543E+02  2.746187149E+01  0.00000E+00  9.000E+00
      13     1     3     3     0     0  6.889703546E+00  1.120957654E+01 -7.922842335E+01  8.031361560E+01  1.056583668E-01  0.00000E+00  9.000E+00
     -13     1     3     3     0     0  1.266597418E+01 -4.224248040E+00 -1.539395903E+01  2.037783874E+01  1.056583668E-01  0.00000E+00  9.000E+00
      21     1     1     2   501   511 -1.955567773E+01 -6.985328498E+00  4.885388178E+01  5.308409470E+01  9.536743164E-07  0.00000E+00  9.000E+00
#pdf  -1  1 0.37237577E-03 0.11983733E-01 0.27461871E+02 0.16123851E+01 0.58778654E+00
#rwgt            1           5   175.61400821000834         54217137    18542364           0
</event>
<event>
      6  10013  3.31628E+03  3.22244E+00 -1.00000E+00  2.87619E-01
      -2    -1     0     0     0   501  0.000000000E+00  0.000000000E+00  1.439010538E+00  1.439010538E+00  0.000000000E+00  0.00000E+00  9.000E+00
      21    -1     0     0   501   511  0.000000000E+00  0.000000000E+00 -4.383149896E+02  4.383149896E+02  0.000000000E+00  0.00000E+00  9.000E+00
      23     2     1     2     0     0 -2.531551390E+00  1.993832204E+00 -4.358221732E+02  4.363636276E+02  2.149103745E+01  0.00000E+00  9.000E+00
      13     1     3     3     0     0 -1.096268668E+01  2.132187577E+00 -1.492055790E+02  1.496230019E+02  1.056583668E-01  0.00000E+00  9.000E+00
     -13     1     3     3     0     0  8.431135289E+00 -1.383553728E-01 -2.866165943E+02  2.867406257E+02  1.056583668E-01  0.00000E+00  9.000E+00
      -2     1     1     2     0   511  2.531551390E+00 -1.993832204E+00 -1.053805843E+00  3.390372553E+00  0.000000000E+00  0.00000E+00  9.000E+00
#pdf  -2  2 0.41189873E-04 0.66349492E-01 0.21491037E+02 0.29501146E+01 0.62848810E+00
#rwgt            1           4   1833.1717350314279         54217137    18542423           0
</event>
<event>
      6  10013 -3.31628E+03  5.72819E+00 -1.00000E+00  2.28564E-01
       1    -1     0     0   501     0  0.000000000E+00  0.000000000E+00  1.015200601E+01  1.015200601E+01  0.000000000E+00  0.00000E+00  9.000E+00
      21    -1     0     0   511   501  0.000000000E+00  0.000000000E+00 -4.261425592E+01  4.261425592E+01  0.000000000E+00  0.00000E+00  9.000E+00
      23     2     1     2     0     0  3.694183467E+00 -4.377797686E+00 -2.801756919E+01  4.551593154E+01  3.541050321E+01  0.00000E+00  9.000E+00
      13     1     3     3     0     0  5.280776412E+00  1.296357442E+01 -2.377908463E+01  2.759342115E+01  1.056583668E-01  0.00000E+00  9.000E+00
     -13     1     3     3     0     0 -1.586592945E+00 -1.734137211E+01 -4.238484557E+00  1.792251039E+01  1.056583668E-01  0.00000E+00  9.000E+00
       1     1     1     2   511     0 -3.694183467E+00  4.377797686E+00 -4.444680720E+00  7.250330390E+00  0.000000000E+00  0.00000E+00  9.000E+00
#pdf   1 -1 0.13287547E-02 0.55838361E-02 0.35410503E+02 0.11528729E+01 0.63906862E+00
#rwgt            1           6  -396.72119655306204         54217137    18542522           0
</event>
<event>
      6  10013  3.31628E+03  7.32651E+00 -1.00000E+00  2.12723E-01
      -3    -1     0     0     0   501  0.000000000E+00  0.000000000E+00  1.786196306E+01  1.786196306E+01  0.000000000E+00  0.00000E+00  9.000E+00
      21    -1     0     0   501   511  0.000000000E+00  0.000000000E+00 -4.906588766E+02  4.906588766E+02  0.000000000E+00  0.00000E+00  9.000E+00
      23     2     1     2     0     0  4.611149818E+00  5.693415046E+00 -1.026477222E+02  1.382991472E+02  9.239275717E+01  0.00000E+00  9.000E+00
      13     1     3     3     0     0  7.007907332E+00  1.348329689E+01 -1.190326772E+02  1.199987478E+02  1.056583668E-01  0.00000E+00  9.000E+00
     -13     1     3     3     0     0 -2.396757514E+00 -7.789881844E+00  1.638495502E+01  1.830039946E+01  1.056583668E-01  0.00000E+00  9.000E+00
      -3     1     1     2     0   511 -4.611149818E+00 -5.693415046E+00 -3.701491913E+02  3.702216924E+02  0.000000000E+00  0.00000E+00  9.000E+00
#pdf  -3  3 0.27338355E-02 0.18476375E-01 0.92392757E+02 0.92454010E+00 0.33787040E+00
#rwgt            1           3   446.67996473095917         54217137    18542583           0
</event>
<event>
      6  10013 -3.31628E+03  7.20320E+00 -1.00000E+00  2.13742E-01
      21    -1     0     0   501   511  0.000000000E+00  0.000000000E+00  7.061594790E+01  7.061594790E+01  0.000000000E+00  0.00000E+00  9.000E+00
      -5    -1     0     0     0   501  0.000000000E+00  0.000000000E+00 -3.161947022E+00  3.161947022E+00  0.000000000E+00  0.00000E+00  9.000E+00
      23     2     1     2     0     0 -8.673877386E-01 -7.150783991E+00  5.452167464E+01  5.897481635E+01  2.129624111E+01  0.00000E+00  9.000E+00
      13     1     3     3     0     0 -1.035849363E+01 -2.362447282E+00  3.685600436E+01  3.835695202E+01  1.056583668E-01  0.00000E+00  9.000E+00
     -13     1     3     3     0     0  9.491105889E+00 -4.788336709E+00  1.766567028E+01  2.061786433E+01  1.056583668E-01  0.00000E+00  9.000E+00
      -5     1     1     2     0   511  8.673877386E-01  7.150783991E+00  1.293232624E+01  1.480307857E+01  0.000000000E+00  0.00000E+00  9.000E+00
#pdf   5 -5 0.82702295E-02 0.32449024E-03 0.21296241E+02 0.15203672E+00 0.73549495E+00
#rwgt            1          10  -303.61867170426683         54217137    18542664           0
</event>
<event>
      6  10013  3.31628E+03  3.88839E+00 -1.00000E+00  2.66289E-01
       1    -1     0     0   511     0  0.000000000E+00  0.000000000E+00  2.283512052E+03  2.283512052E+03  0.000000000E+00  0.00000E+00  9.000E+00
      -1    -1     0     0     0   501  0.000000000E+00  0.000000000E+00 -8.998194712E-01  8.998194712E-01  0.000000000E+00  0.00000E+00  9.000E+00
      23     2     1     2     0     0 -3.837517404E+00 -6.269018407E-01  2.029647559E+03  2.031417315E+03  8.468751041E+01  0.00000E+00  9.000E+00
      13     1     3     3     0     0 -3.724121237E+01  2.120231288E+01  1.269499075E+03  1.270222169E+03  1.056583668E-01  0.00000E+00  9.000E+00
     -13     1     3     3     0     0  3.340369497E+01 -2.182921473E+01  7.601484844E+02  7.611951465E+02  1.056583668E-01  0.00000E+00  9.000E+00
      21     1     1     2   511   501  3.837517404E+00  6.269018407E-01  2.529646736E+02  2.529945565E+02  3.814697266E-06  0.00000E+00  9.000E+00
#pdf   1 -1 0.31206084E+00 0.13599181E-03 0.84687510E+02 0.12292864E+00 0.30086382E+01
#rwgt            1           6   645.33762098201930         54217137    18542881           0
</event>
<event>
      6  10013  3.31628E+03  1.84494E+01 -1.00000E+00  1.69271E-01
      21    -1     0     0   501   511  0.000000000E+00  0.000000000E+00  1.110979989E+02  1.110979989E+02  0.000000000E+00  0.00000E+00  9.000E+00
      -3    -1     0     0     0   501  0.000000000E+00  0.000000000E+00 -2.826382016E+01  2.826382016E+01  0.000000000E+00  0.00000E+00  9.000E+00
      23     2     1     2     0     0 -5.516107384E+00  1.760544833E+01  5.682931157E+01  1.074771461E+02  8.933860888E+01  0.00000E+00  9.000E+00
      13     1     3     3     0     0  1.744860345E+01  2.735823343E+01  7.151042821E+01  7.852820643E+01  1.056583668E-01  0.00000E+00  9.000E+00
     -13     1     3     3     0     0 -2.296471083E+01 -9.752785101E+00 -1.468111664E+01  2.894893971E+01  1.056583668E-01  0.00000E+00  9.000E+00
      -3     1     1     2     0   511  5.516107384E+00 -1.760544833E+01  2.600486722E+01  3.188467297E+01  0.000000000E+00  0.00000E+00  9.000E+00
#pdf   3 -3 0.12377779E-01 0.38154780E-02 0.89338609E+02 0.43247020E+00 0.79193273E+00
#rwgt            1           8   492.01383200479950         54217137    18542991           0
</event>
<event>
      6  10013  3.31628E+03  1.51646E+01 -1.00000E+00  1.76891E-01
       1    -1     0     0   501     0  0.000000000E+00  0.000000000E+00  5.902219173E+02  5.902219173E+02  0.000000000E+00  0.00000E+00  9.000E+00
      21    -1     0     0   511   501  0.000000000E+00  0.000000000E+00 -5.800966073E+00  5.800966073E+00  0.000000000E+00  0.00000E+00  9.000E+00
      23     2     1     2     0     0 -4.115107577E+00 -1.459559803E+01  5.563049315E+02  5.640779909E+02  9.208060257E+01  0.00000E+00  9.000E+00
      13     1     3     3     0     0  4.196900817E+01  6.997116880E-01  3.273989963E+02  3.300787803E+02  1.056583668E-01  0.00000E+00  9.000E+00
     -13     1     3     3     0     0 -4.608411575E+01 -1.529530972E+01  2.289059352E+02  2.339992106E+02  1.056583668E-01  0.00000E+00  9.000E+00
       1     1     1     2   511     0  4.115107577E+00  1.459559803E+01  2.811601971E+01  3.194489250E+01  0.000000000E+00  0.00000E+00  9.000E+00
#pdf   1 -1 0.85037806E-01 0.58998036E-03 0.92080603E+02 0.38322634E+00 0.17886166E+01
#rwgt            1           6   602.43913755763413         54217137    18543070           0
</event>
<event>
      6  10013  3.31628E+03  1.18282E+01 -1.00000E+00  1.87636E-01
       4    -1     0     0   501     0  0.000000000E+00  0.000000000E+00  1.271050588E+02  1.271050588E+02  0.000000000E+00  0.00000E+00  9.000E+00
      21    -1     0     0   511   501  0.000000000E+00  0.000000000E+00 -4.146708245E+00  4.146708245E+00  0.000000000E+00  0.00000E+00  9.000E+00
      23     2     1     2     0     0 -1.163763905E+01  2.114447686E+00  8.977044449E+01  9.601907427E+01  3.195347223E+01  0.00000E+00  9.000E+00
      13     1     3     3     0     0 -7.293887571E+00 -7.936392701E+00  8.172110248E+01  8.242898082E+01  1.056583668E-01  0.00000E+00  9.000E+00
     -13     1     3     3     0     0 -4.343751479E+00  1.005084039E+01  8.049342015E+00  1.359009345E+01  1.056583668E-01  0.00000E+00  9.000E+00
       4     1     1     2   511     0  1.163763905E+01 -2.114447686E+00  3.318790610E+01  3.523269282E+01  0.000000000E+00  0.00000E+00  9.000E+00
#pdf   4 -4 0.13402719E-01 0.45077155E-03 0.31953472E+02 0.24687894E+00 0.12397997E+01
#rwgt            1           9   400.67701706118356         54217137    18543097           0
</event>
<event>
      6  10013  3.31628E+03  1.62119E+01 -1.00000E+00  1.74217E-01
       2    -1     0     0   501     0  0.000000000E+00  0.000000000E+00  8.704479312E+02  8.704479312E+02  0.000000000E+00  0.00000E+00  9.000E+00
      -2    -1     0     0     0   511  0.000000000E+00  0.000000000E+00 -8.959235008E+00  8.959235008E+00  0.000000000E+00  0.00000E+00  9.000E+00
      23     2     1     2     0     0 -1.483934689E+01  6.528396628E+00  8.580625621E+02  8.628371761E+02  8.918411115E+01  0.00000E+00  9.000E+00
      13     1     3     3     0     0  2.949934657E+01 -8.149647767E+00  5.857030195E+02  5.865020600E+02  1.056583668E-01  0.00000E+00  9.000E+00
     -13     1     3     3     0     0 -4.433869345E+01  1.467804439E+01  2.723595427E+02  2.763351161E+02  1.056583668E-01  0.00000E+00  9.000E+00
      21     1     1     2   501   511  1.483934689E+01 -6.528396628E+00  3.426134046E+00  1.656999013E+01  5.575503985E-07  0.00000E+00  9.000E+00
#pdf   2 -2 0.13024252E+00 0.36135618E-03 0.89184111E+02 0.57606960E+00 0.21314561E+01
#rwgt            1           7   1580.2590261940547         54217137    18543198           0
</event>
<event>
      6  10013  3.31628E+03  1.49540E+01 -1.00000E+00  1.77462E-01
       2    -1     0     0   501     0  0.000000000E+00  0.000000000E+00  1.676198489E+01  1.676198489E+01  0.000000000E+00  0.00000E+00  9.000E+00
      21    -1     0     0   511   501  0.000000000E+00  0.000000000E+00 -8.659018827E+01  8.659018827E+01  0.000000000E+00  0.00000E+00  9.000E+00
      23     2     1     2     0     0 -8.336764835E+00  1.241453684E+01  2.625972500E+00  2.937089191E+01  2.514221921E+01  0.00000E+00  9.000E+00
      13     1     3     3     0     0  6.599322090E+00  7.116967933E+00  8.060545441E+00  1.261688714E+01  1.056583668E-01  0.00000E+00  9.000E+00
     -13     1     3     3     0     0 -1.493608692E+01  5.297568907E+00 -5.434572941E+00  1.675400477E+01  1.056583668E-01  0.00000E+00  9.000E+00
       2     1     1     2   511     0  8.336764835E+00 -1.241453684E+01 -7.245417588E+01  7.398128125E+01  0.000000000E+00  0.00000E+00  9.000E+00
#pdf   2 -2 0.21154040E-02 0.17681829E-02 0.25142219E+02 0.96417142E+00 0.92261022E+00
#rwgt            1           7   634.29853217679158         54217137    18543270           0
</event>
<event>
      6  10013  3.31628E+03  5.17113E+00 -1.00000E+00  2.35904E-01
       2    -1     0     0   501     0  0.000000000E+00  0.000000000E+00  6.338155414E+02  6.338155414E+02  0.000000000E+00  0.00000E+00  9.000E+00
      -2    -1     0     0     0   511  0.000000000E+00  0.000000000E+00 -8.764721836E+00  8.764721836E+00  0.000000000E+00  0.00000E+00  9.000E+00
      23     2     1     2     0     0  4.482733744E+00 -2.577927436E+00  6.292223550E+02  6.359362945E+02  9.201879192E+01  0.00000E+00  9.000E+00
      13     1     3     3     0     0 -2.354170657E+01  1.514334090E+01  5.404379933E+02  5.411624234E+02  1.056583668E-01  0.00000E+00  9.000E+00
     -13     1     3     3     0     0  2.802444032E+01 -1.772126833E+01  8.878436170E+01  9.477387115E+01  1.056583668E-01  0.00000E+00  9.000E+00
      21     1     1     2   501   511 -4.482733744E+00  2.577927436E+00 -4.171535459E+00  6.643968676E+00  4.730972012E-07  0.00000E+00  9.000E+00
#pdf   2 -2 0.97166589E-01 0.51564332E-03 0.92018792E+02 0.60432589E+00 0.18758096E+01
#rwgt            1           7   1583.3976965302688         54217137    18543309           0
</event>
<event>
      6  10013  3.31628E+03  4.67826E+00 -1.00000E+00  2.48312E-01
       1    -1     0     0   511     0  0.000000000E+00  0.000000000E+00  5.445887046E+01  5.445887046E+01  0.000000000E+00  0.00000E+00  9.000E+00
      -1    -1     0     0     0   501  0.000000000E+00  0.000000000E+00 -4.446400437E+01  4.446400437E+01  0.000000000E+00  0.00000E+00  9.000E+00
      23     2     1     2     0     0 -6.201286414E-02  4.677844390E+00  4.462142573E+00  9.167738635E+01  9.144914640E+01  0.00000E+00  9.000E+00
      13     1     3     3     0     0 -4.166963463E+01 -1.313897709E+00 -1.633595999E+01  4.477677445E+01  1.056583668E-01  0.00000E+00  9.000E+00
     -13     1     3     3     0     0  4.160762177E+01  5.991742099E+00  2.079810256E+01  4.690061190E+01  1.056583668E-01  0.00000E+00  9.000E+00
      21     1     1     2   511   501  6.201286414E-02 -4.677844390E+00  5.532723522E+00  7.245488479E+00  0.000000000E+00  0.00000E+00  9.000E+00
#pdf   1 -1 0.73856904E-02 0.67001035E-02 0.91449146E+02 0.74315443E+00 0.65389267E+00
#rwgt            1           6   450.70596446787130         54217137    18543405           0
</event>
<event>
      6  10013  3.31628E+03  5.30196E+00 -1.00000E+00  2.34066E-01
      -1    -1     0     0     0   501  0.000000000E+00  0.000000000E+00  1.908160387E+02  1.908160387E+02  0.000000000E+00  0.00000E+00  9.000E+00
       1    -1     0     0   511     0  0.000000000E+00  0.000000000E+00 -1.226454312E+01  1.226454312E+01  0.000000000E+00  0.00000E+00  9.000E+00
      23     2     1     2     0     0 -3.159365908E+00  4.257839636E+00  1.691395754E+02  1.922780343E+02  9.129367841E+01  0.00000E+00  9.000E+00
      13     1     3     3     0     0  3.727643181E+01 -1.960538004E+01  1.019635206E+02  1.103198712E+02  1.056583668E-01  0.00000E+00  9.000E+00
     -13     1     3     3     0     0 -4.043579772E+01  2.386321967E+01  6.717605482E+01  8.195816308E+01  1.056583668E-01  0.00000E+00  9.000E+00
      21     1     1     2   511   501  3.159365908E+00 -4.257839636E+00  9.411920233E+00  1.080254756E+01  1.192092896E-07  0.00000E+00  9.000E+00
#pdf  -1  1 0.27754589E-01 0.17768874E-02 0.91293678E+02 0.31433193E+00 0.12181052E+01
#rwgt            1           5   442.19979568064133         54217137    18543462           0
</event>
<event>
      6  10013  3.31628E+03  6.53967E+00 -1.00000E+00  2.19741E-01
      21    -1     0     0   511   501  0.000000000E+00  0.000000000E+00  3.232504015E+01  3.232504015E+01  0.000000000E+00  0.00000E+00  9.000E+00
       2    -1     0     0   501     0  0.000000000E+00  0.000000000E+00 -1.167899360E+01  1.167899360E+01  0.000000000E+00  0.00000E+00  9.000E+00
      23     2     1     2     0     0  5.406104397E+00 -3.679859200E+00  1.418215038E+01  3.480896538E+01  3.110889508E+01  0.00000E+00  9.000E+00
      13     1     3     3     0     0  3.800381211E+00 -2.806130950E-01  2.399715998E+01  2.429807588E+01  1.056583668E-01  0.00000E+00  9.000E+00
     -13     1     3     3     0     0  1.605723187E+00 -3.399246105E+00 -9.815009594E+00  1.051088950E+01  1.056583668E-01  0.00000E+00  9.000E+00
       2     1     1     2   511     0 -5.406104397E+00  3.679859200E+00  6.463896176E+00  9.195068366E+00  0.000000000E+00  0.00000E+00  9.000E+00
#pdf  -2  2 0.36879397E-02 0.15527397E-02 0.31108895E+02 0.72716683E+00 0.10956616E+01
#rwgt            1           4   792.30116568587948         54217137    18543618           0
</event>
<event>
      6  10013  3.31628E+03  2.06672E+01 -1.00000E+00  1.65161E-01
      21    -1     0     0   511   501  0.000000000E+00  0.000000000E+00  1.924117054E+01  1.924117054E+01  0.000000000E+00  0.00000E+00  9.000E+00
       2    -1     0     0   501     0  0.000000000E+00  0.000000000E+00 -1.741192043E+02  1.741192043E+02  0.000000000E+00  0.00000E+00  9.000E+00
      23     2     1     2     0     0 -6.497403355E+00 -1.961926109E+01 -1.391569115E+02  1.673933700E+02  9.071252749E+01  0.00000E+00  9.000E+00
      13     1     3     3     0     0 -1.257223914E+01  3.227650671E+01 -2.789845966E+01  4.447661517E+01  1.056583668E-01  0.00000E+00  9.000E+00
     -13     1     3     3     0     0  6.074835788E+00 -5.189576780E+01 -1.112584518E+02  1.229167548E+02  1.056583668E-01  0.00000E+00  9.000E+00
       2     1     1     2   511     0  6.497403355E+00  1.961926109E+01 -1.572112231E+01  2.596700489E+01  0.000000000E+00  0.00000E+00  9.000E+00
#pdf  -2  2 0.21177670E-02 0.22991625E-01 0.90712527E+02 0.10667628E+01 0.66882712E+00
#rwgt            1           4   640.41945837607955         54217137    18543801           0
</event>
<event>
      6  10013  3.31628E+03  8.35863E+00 -1.00000E+00  2.05147E-01
      21    -1     0     0   511   501  0.000000000E+00  0.000000000E+00  3.202199075E+02  3.202199075E+02  0.000000000E+00  0.00000E+00  9.000E+00
       5    -1     0     0   501     0  0.000000000E+00  0.000000000E+00 -7.987402984E+00  7.987402984E+00  0.000000000E+00  0.00000E+00  9.000E+00
      23     2     1     2     0     0  7.723974532E+00  3.194817278E+00  2.951504424E+02  3.091898583E+02  9.173177318E+01  0.00000E+00  9.000E+00
      13     1     3     3     0     0  1.678329228E-01  4.671926937E+01  1.265647635E+02  1.349124487E+02  1.056583668E-01  0.00000E+00  9.000E+00
     -13     1     3     3     0     0  7.556141609E+00 -4.352445210E+01  1.685856789E+02  1.742774096E+02  1.056583668E-01  0.00000E+00  9.000E+00
       5     1     1     2   511     0 -7.723974532E+00 -3.194817278E+00  1.708206213E+01  1.901745216E+01  0.000000000E+00  0.00000E+00  9.000E+00
#pdf  -5  5 0.46295917E-01 0.10754994E-02 0.91731773E+02 0.53037785E-01 0.82385276E+00
#rwgt            1           1   67.492895035002689         54217137    18543853           0
</event>
<event>
      6  10013  3.31628E+03  2.80006E+01 -1.00000E+00  1.55114E-01
      21    -1     0     0   511   501  0.000000000E+00  0.000000000E+00  5.395211129E+02  5.395211129E+02  0.000000000E+00  0.00000E+00  9.000E+00
       3    -1     0     0   501     0  0.000000000E+00  0.000000000E+00 -9.766953163E+00  9.766953163E+00  0.000000000E+00  0.00000E+00  9.000E+00
      23     2     1     2     0     0  2.782815540E+01  3.103160406E+00  4.978920638E+02  5.068707465E+02  9.076018219E+01  0.00000E+00  9.000E+00
      13     1     3     3     0     0  5.875054225E+00  1.313816707E+01  8.160878175E+00  1.654505341E+01  1.056583668E-01  0.00000E+00  9.000E+00
     -13     1     3     3     0     0  2.195310117E+01 -1.003500666E+01  4.897311856E+02  4.903256931E+02  1.056583668E-01  0.00000E+00  9.000E+00
       3     1     1     2   511     0 -2.782815540E+01 -3.103160406E+00  3.186209593E+01  4.241731950E+01  0.000000000E+00  0.00000E+00  9.000E+00
#pdf  -3  3 0.73854586E-01 0.65997357E-03 0.90760182E+02 0.96551048E-01 0.16590340E+01
#rwgt            1           3   261.11310433721212         54217137    18544343           0
</event>
<event>
      6  10013  3.31628E+03  3.19115E+00 -1.00000E+00  2.88827E-01
       1    -1     0     0   511     0  0.000000000E+00  0.000000000E+00  1.224736235E+01  1.224736235E+01  0.000000000E+00  0.00000E+00  9.000E+00
      -1    -1     0     0     0   501  0.000000000E+00  0.000000000E+00 -1.739525813E+02  1.739525813E+02  0.000000000E+00  0.00000E+00  9.000E+00
      23     2     1     2     0     0  1.273756761E+00 -2.925916756E+00 -1.583644237E+02  1.815799482E+02  8.877952157E+01  0.00000E+00  9.000E+00
      13     1     3     3     0     0  3.734461172E+01  9.090586999E+00 -3.326745849E+01  5.083299868E+01  1.056583668E-01  0.00000E+00  9.000E+00
     -13     1     3     3     0     0 -3.607085496E+01 -1.201650375E+01 -1.250969652E+02  1.307469495E+02  1.056583668E-01  0.00000E+00  9.000E+00
      21     1     1     2   511   501 -1.273756761E+00  2.925916756E+00 -3.340795265E+00  4.619995471E+00  5.960464478E-08  0.00000E+00  9.000E+00
#pdf   1 -1 0.17846570E-02 0.26132691E-01 0.88779522E+02 0.12114984E+01 0.32543931E+00
#rwgt            1           6   539.94625965693695         54217137    18544396           0
</event>
<event>
      6  10013  3.31628E+03  4.78631E+01 -1.00000E+00  1.40137E-01
       1    -1     0     0   501     0  0.000000000E+00  0.000000000E+00  1.455127256E+03  1.455127256E+03  0.000000000E+00  0.00000E+00  9.000E+00
      21    -1     0     0   511   501  0.000000000E+00  0.000000000E+00 -3.910688594E+00  3.910688594E+00  0.000000000E+00  0.00000E+00  9.000E+00
      23     2     1     2     0     0  1.679275407E+00  4.783362000E+01  9.836927574E+02  9.890705116E+02  9.120395143E+01  0.00000E+00  9.000E+00
      13     1     3     3     0     0  4.642908025E+01  2.360271610E+01  4.862305680E+02  4.890121922E+02  1.056583668E-01  0.00000E+00  9.000E+00
     -13     1     3     3     0     0 -4.474980485E+01  2.423090390E+01  4.974621894E+02  5.000583194E+02  1.056583668E-01  0.00000E+00  9.000E+00
       1     1     1     2   511     0 -1.679275407E+00 -4.783362000E+01  4.675238099E+02  4.699674330E+02  0.000000000E+00  0.00000E+00  9.000E+00
#pdf   1 -1 0.13437155E+00 0.36629694E-03 0.91203951E+02 0.31349581E+00 0.21356085E+01
#rwgt            1           6   859.01696138997784         54217137    18544507           0
</event>
<event>
      6  10013  3.31628E+03  1.90638E+01 -1.00000E+00  1.68063E-01
      21    -1     0     0   501   511  0.000000000E+00  0.000000000E+00  2.776486180E+01  2.776486180E+01  0.000000000E+00  0.00000E+00  9.000E+00
      -2    -1     0     0     0   501  0.000000000E+00  0.000000000E+00 -1.198794787E+02  1.198794787E+02  0.000000000E+00  0.00000E+00  9.000E+00
      23     2     1     2     0     0 -7.118614631E+00  1.768487109E+01 -8.107324279E+01  1.256138779E+02  9.403481425E+01  0.00000E+00  9.000E+00
      13     1     3     3     0     0 -4.855015016E+01  1.301106306E+01 -2.615455950E+01  5.666107120E+01  1.056583668E-01  0.00000E+00  9.000E+00
     -13     1     3     3     0     0  4.143153553E+01  4.673808027E+00 -5.491868329E+01  6.895280673E+01  1.056583668E-01  0.00000E+00  9.000E+00
      -2     1     1     2     0   511  7.118614631E+00 -1.768487109E+01 -1.104137416E+01  2.203046262E+01  0.000000000E+00  0.00000E+00  9.000E+00
#pdf   2 -2 0.33578927E-02 0.15582022E-01 0.94034814E+02 0.10207919E+01 0.41071409E+00
#rwgt            1           7   487.74986337470352         54217137    18544763           0
</event>
<event>
      6  10013  3.31628E+03  2.55837E+00 -1.00000E+00  3.19401E-01
       2    -1     0     0   511     0  0.000000000E+00  0.000000000E+00  4.093765248E+02  4.093765248E+02  0.000000000E+00  0.00000E+00  9.000E+00
      -2    -1     0     0     0   501  0.000000000E+00  0.000000000E+00 -5.620992421E-01  5.620992421E-01  0.000000000E+00  0.00000E+00  9.000E+00
      23     2     1     2     0     0  2.474263283E+00 -6.505827059E-01  3.604434716E+02  3.615000606E+02  2.750004354E+01  0.00000E+00  9.000E+00
      13     1     3     3     0     0  9.019089905E+00 -8.451662374E+00  8.772663968E+01  8.859316595E+01  1.056583668E-01  0.00000E+00  9.000E+00
     -13     1     3     3     0     0 -6.544826622E+00  7.801079668E+00  2.727168319E+02  2.729068947E+02  1.056583668E-01  0.00000E+00  9.000E+00
      21     1     1     2   511   501 -2.474263283E+00  6.505827059E-01  4.837095400E+01  4.843856343E+01  9.536743164E-07  0.00000E+00  9.000E+00
#pdf   2 -2 0.55295347E-01 0.80926632E-04 0.27500044E+02 0.62811037E+00 0.26200834E+01
#rwgt            1           7   1885.6614439509740         54217137    18544824           0
</event>
<event>
      6  10013  3.31628E+03  2.31427E+01 -1.00000E+00  1.61265E-01
      21    -1     0     0   511   501  0.000000000E+00  0.000000000E+00  2.539766164E-01  2.539766164E-01  0.000000000E+00  0.00000E+00  9.000E+00
       2    -1     0     0   501     0  0.000000000E+00  0.000000000E+00 -3.208529079E+03  3.208529079E+03  0.000000000E+00  0.00000E+00  9.000E+00
      23     2     1     2     0     0  1.264558232E+01 -1.938235800E+01 -1.528034967E+03  1.528383550E+03  2.301800180E+01  0.00000E+00  9.000E+00
      13     1     3     3     0     0  1.250563799E+00 -1.795607508E+01 -5.805271067E+02  5.808060927E+02  1.056583668E-01  0.00000E+00  9.000E+00
     -13     1     3     3     0     0  1.139501852E+01 -1.426282927E+00 -9.475078603E+02  9.475774571E+02  1.056583668E-01  0.00000E+00  9.000E+00
       2     1     1     2   511     0 -1.264558232E+01  1.938235800E+01 -1.680240136E+03  1.680399506E+03  0.000000000E+00  0.00000E+00  9.000E+00
#pdf  -2  2 0.18909099E-04 0.16579739E+00 0.23018002E+02 0.38074054E+01 0.58094827E+00
#rwgt            1           4   3394.0943633034481         54217137    18544936           0
</event>
<event>
      6  10013  3.31628E+03  1.51869E+00 -1.00000E+00  4.29663E-01
       3    -1     0     0   501     0  0.000000000E+00  0.000000000E+00  2.923308414E+01  2.923308414E+01  0.000000000E+00  0.00000E+00  9.000E+00
      21    -1     0     0   511   501  0.000000000E+00  0.000000000E+00 -3.187376669E+02  3.187376669E+02  0.000000000E+00  0.00000E+00  9.000E+00
      23     2     1     2     0     0  2.832230408E-01  1.492047123E+00 -3.882952863E+01  9.729109654E+01  8.919371476E+01  0.00000E+00  9.000E+00
      13     1     3     3     0     0 -4.412408463E+01  3.228482412E+00 -2.463204116E+01  5.063700780E+01  1.056583668E-01  0.00000E+00  9.000E+00
     -13     1     3     3     0     0  4.440730767E+01 -1.736435288E+00 -1.419748747E+01  4.665408874E+01  1.056583668E-01  0.00000E+00  9.000E+00
       3     1     1     2   511     0 -2.832230408E-01 -1.492047123E+00 -2.506750541E+02  2.506796545E+02  0.000000000E+00  0.00000E+00  9.000E+00
#pdf   3 -3 0.44963919E-02 0.10469300E-01 0.89193715E+02 0.73331510E+00 0.47588248E+00
#rwgt            1           8   393.62220264560369         54217137    18544988           0
</event>
<event>
      6  10013  3.31628E+03  3.38552E+01 -1.00000E+00  1.49447E-01
      -3    -1     0     0     0   501  0.000000000E+00  0.000000000E+00  1.613865966E+02  1.613865966E+02  0.000000000E+00  0.00000E+00  9.000E+00
      21    -1     0     0   501   511  0.000000000E+00  0.000000000E+00 -2.898003102E+01  2.898003102E+01  0.000000000E+00  0.00000E+00  9.000E+00
      23     2     1     2     0     0 -2.020286102E+01  2.716650825E+01  1.109256333E+02  1.502716752E+02  9.555577148E+01  0.00000E+00  9.000E+00
      13     1     3     3     0     0  3.117170081E+01  3.032901713E+01  7.758932238E+01  8.894739076E+01  1.056583668E-01  0.00000E+00  9.000E+00
     -13     1     3     3     0     0 -5.137456184E+01 -3.162508873E+00  3.333631093E+01  6.132428439E+01  1.056583668E-01  0.00000E+00  9.000E+00
      -3     1     1     2     0   511  2.020286102E+01 -2.716650825E+01  2.148093230E+01  4.009495251E+01  0.000000000E+00  0.00000E+00  9.000E+00
#pdf  -3  3 0.18938579E-01 0.28528553E-02 0.95555771E+02 0.33290478E+00 0.91113125E+00
#rwgt            1           3   369.01155836009195         54217137    18545174           0
</event>
<event>
      6  10013  3.31628E+03  2.16637E+00 -1.00000E+00  3.47422E-01
      21    -1     0     0   511   501  0.000000000E+00  0.000000000E+00  5.176846223E+01  5.176846223E+01  0.000000000E+00  0.00000E+00  9.000E+00
       3    -1     0     0   501     0  0.000000000E+00  0.000000000E+00 -4.584617919E+01  4.584617919E+01  0.000000000E+00  0.00000E+00  9.000E+00
      23     2     1     2     0     0 -1.382109439E+00 -1.668211413E+00  3.181215697E-01  9.160633203E+01  9.158016003E+01  0.00000E+00  9.000E+00
      13     1     3     3     0     0 -1.457281514E+01  9.754022976E+00  4.249031752E+01  4.596679401E+01  1.056583668E-01  0.00000E+00  9.000E+00
     -13     1     3     3     0     0  1.319070570E+01 -1.142223439E+01 -4.217219595E+01  4.563953802E+01  1.056583668E-01  0.00000E+00  9.000E+00
       3     1     1     2   511     0  1.382109439E+00  1.668211413E+00  5.604161471E+00  6.008309381E+00  0.000000000E+00  0.00000E+00  9.000E+00
#pdf  -3  3 0.70691342E-02 0.70202061E-02 0.91580160E+02 0.58853809E+00 0.59063693E+00
#rwgt            1           3   340.93418108926903         54217137    18545250           0
</event>
<event>
      6  10013  3.31628E+03  2.72123E+00 -1.00000E+00  3.10189E-01
      21    -1     0     0   511   501  0.000000000E+00  0.000000000E+00  6.698715945E+00  6.698715945E+00  0.000000000E+00  0.00000E+00  9.000E+00
       4    -1     0     0   501     0  0.000000000E+00  0.000000000E+00 -2.201988860E+01  2.201988860E+01  0.000000000E+00  0.00000E+00  9.000E+00
      23     2     1     2     0     0  2.666285526E+00 -5.440574881E-01 -1.212908917E+01  2.452402780E+01  2.114020006E+01  0.00000E+00  9.000E+00
      13     1     3     3     0     0  3.816008407E+00  1.183283782E+00  5.485658669E+00  6.787171384E+00  1.056583668E-01  0.00000E+00  9.000E+00
     -13     1     3     3     0     0 -1.149722881E+00 -1.727341270E+00 -1.761474783E+01  1.773685642E+01  1.056583668E-01  0.00000E+00  9.000E+00
       4     1     1     2   511     0 -2.666285526E+00  5.440574881E-01 -3.192083487E+00  4.194576742E+00  0.000000000E+00  0.00000E+00  9.000E+00
#pdf  -4  4 0.94565446E-03 0.27963982E-02 0.21140200E+02 0.81800577E+00 0.52513040E+00
#rwgt            1           2   280.33873541801410         54217137    18545387           0
</event>
<event>
      6  10013  3.31628E+03  1.35675E+00 -1.00000E+00  4.81484E-01
       2    -1     0     0   511     0  0.000000000E+00  0.000000000E+00  1.694815042E+03  1.694815042E+03  0.000000000E+00  0.00000E+00  9.000E+00
      -2    -1     0     0     0   501  0.000000000E+00  0.000000000E+00 -9.001845995E-01  9.001845995E-01  0.000000000E+00  0.00000E+00  9.000E+00
      23     2     1     2     0     0  1.297191761E+00  3.975735187E-01  1.378581321E+03  1.380378772E+03  7.040776430E+01  0.00000E+00  9.000E+00
      13     1     3     3     0     0 -3.508210048E+00  3.433105269E+01  5.435408215E+02  5.446352582E+02  1.056583668E-01  0.00000E+00  9.000E+00
     -13     1     3     3     0     0  4.805401809E+00 -3.393347918E+01  8.350404998E+02  8.357435135E+02  1.056583668E-01  0.00000E+00  9.000E+00
      21     1     1     2   511   501 -1.297191761E+00 -3.975735187E-01  3.153335364E+02  3.153364551E+02  5.394796609E-06  0.00000E+00  9.000E+00
#pdf   2 -2 0.21218831E+00 0.13823975E-03 0.70407764E+02 0.48279203E+00 0.28599570E+01
#rwgt            1           7   3103.3615061861951         54217137    18545463           0
</event>
<event>
      6  10013  3.31628E+03  4.29070E+00 -1.00000E+00  2.56389E-01
      -3    -1     0     0     0   511  0.000000000E+00  0.000000000E+00  2.828992692E-01  2.828992692E-01  0.000000000E+00  0.00000E+00  9.000E+00
       3    -1     0     0   501     0  0.000000000E+00  0.000000000E+00 -6.204843024E+02  6.204843024E+02  0.000000000E+00  0.00000E+00  9.000E+00
      23     2     1     2     0     0  3.796042401E+00 -2.000051760E+00 -5.551935222E+02  5.556178753E+02  2.128300027E+01  0.00000E+00  9.000E+00
      13     1     3     3     0     0 -1.165491523E+00 -3.922216449E+00 -5.207111110E+02  5.207271977E+02  1.056583668E-01  0.00000E+00  9.000E+00
     -13     1     3     3     0     0  4.961533924E+00  1.922164689E+00 -3.448241126E+01  3.489067764E+01  1.056583668E-01  0.00000E+00  9.000E+00
      21     1     1     2   501   511 -3.796042401E+00  2.000051760E+00 -6.500788090E+01  6.514932635E+01  1.651812370E-06  0.00000E+00  9.000E+00
#pdf  -3  3 0.31998750E-04 0.83761796E-01 0.21283000E+02 0.30716610E+01 0.84393789E-01
#rwgt            1           3   62.610417207046055         54217137    18545780           0
</event>
<event>
      6  10013  3.31628E+03  9.24477E+00 -1.00000E+00  1.99723E-01
      -2    -1     0     0     0   501  0.000000000E+00  0.000000000E+00  2.282932423E+00  2.282932423E+00  0.000000000E+00  0.00000E+00  9.000E+00
      21    -1     0     0   501   511  0.000000000E+00  0.000000000E+00 -8.518661238E+02  8.518661238E+02  0.000000000E+00  0.00000E+00  9.000E+00
      23     2     1     2     0     0 -9.042665282E+00  1.922483494E+00 -9.531906561E+01  9.982827754E+01  2.818678749E+01  0.00000E+00  9.000E+00
      13     1     3     3     0     0 -1.888704045E+01 -2.055930278E+00 -5.841368112E+01  6.142569863E+01  1.056583668E-01  0.00000E+00  9.000E+00
     -13     1     3     3     0     0  9.844375173E+00  3.978413772E+00 -3.690538449E+01  3.840257891E+01  1.056583668E-01  0.00000E+00  9.000E+00
      -2     1     1     2     0   511  9.042665282E+00 -1.922483494E+00 -7.542641258E+02  7.543207787E+02  0.000000000E+00  0.00000E+00  9.000E+00
#pdf  -2  2 0.32958788E-03 0.14263734E-01 0.28186787E+02 0.16849721E+01 0.66331780E+00
#rwgt            1           4   1107.8523144592884         54217137    18545876           0
</event>
<event>
      6  10013  3.31628E+03  8.84024E+00 -1.00000E+00  2.02094E-01
      -2    -1     0     0     0   501  0.000000000E+00  0.000000000E+00  2.952769921E+00  2.952769921E+00  0.000000000E+00  0.00000E+00  9.000E+00
       2    -1     0     0   511     0  0.000000000E+00  0.000000000E+00 -8.867816936E+02  8.867816936E+02  0.000000000E+00  0.00000E+00  9.000E+00
      23     2     1     2     0     0  1.952567500E+00  8.621912582E+00 -7.920076086E+02  7.974885758E+02  9.291838664E+01  0.00000E+00  9.000E+00
      13     1     3     3     0     0  3.719842103E+01 -2.468734634E+01 -4.056064078E+02  4.080560707E+02  1.056583668E-01  0.00000E+00  9.000E+00
     -13     1     3     3     0     0 -3.524585353E+01  3.330925892E+01 -3.864012008E+02  3.894325051E+02  1.056583668E-01  0.00000E+00  9.000E+00
      21     1     1     2   511   501 -1.952567500E+00 -8.621912582E+00 -9.182131511E+01  9.224588774E+01  1.348699152E-06  0.00000E+00  9.000E+00
#pdf  -2  2 0.41971759E-03 0.12171930E+00 0.92918387E+02 0.20315069E+01 0.58342999E+00
#rwgt            1           4   1365.9935655178751         54217137    18545965           0
</event>
<event>
      6  10013  3.31628E+03  1.59755E+01 -1.00000E+00  1.74798E-01
      -2    -1     0     0     0   501  0.000000000E+00  0.000000000E+00  8.735327443E+01  8.735327443E+01  0.000000000E+00  0.00000E+00  9.000E+00
       2    -1     0     0   511     0  0.000000000E+00  0.000000000E+00 -3.932985339E+01  3.932985339E+01  0.000000000E+00  0.00000E+00  9.000E+00
      23     2     1     2     0     0  1.207173878E+01  1.046372193E+01  5.766160334E+01  1.080253972E+02  8.994114512E+01  0.00000E+00  9.000E+00
      13     1     3     3     0     0  3.740377936E+00 -3.235615006E+01 -3.653189375E+00  3.277602523E+01  1.056583668E-01  0.00000E+00  9.000E+00
     -13     1     3     3     0     0  8.331360848E+00  4.281987199E+01  6.131479272E+01  7.524937196E+01  1.056583668E-01  0.00000E+00  9.000E+00
      21     1     1     2   511   501 -1.207173878E+01 -1.046372193E+01 -9.638182300E+00  1.865773062E+01  2.920019320E-07  0.00000E+00  9.000E+00
#pdf  -2  2 0.12548738E-01 0.38144336E-02 0.89941145E+02 0.46231226E+00 0.97723368E+00
#rwgt            1           4   528.53396537065942         54217137    18546074           0
</event>
<event>
      6  10013  3.31628E+03  1.23726E+00 -1.00000E+00  5.22038E-01
       1    -1     0     0   501     0  0.000000000E+00  0.000000000E+00  1.836827612E+00  1.836827612E+00  0.000000000E+00  0.00000E+00  9.000E+00
      21    -1     0     0   511   501  0.000000000E+00  0.000000000E+00 -6.751738355E+02  6.751738355E+02  0.000000000E+00  0.00000E+00  9.000E+00
      23     2     1     2     0     0  1.217631354E+00 -2.194863411E-01 -6.269446157E+01  6.636686336E+01  2.173555246E+01  0.00000E+00  9.000E+00
      13     1     3     3     0     0  1.108441360E+01 -5.309443378E-01 -4.195008986E+01  4.339317146E+01  1.056583668E-01  0.00000E+00  9.000E+00
     -13     1     3     3     0     0 -9.866782250E+00  3.114579967E-01 -2.074437172E+01  2.297369190E+01  1.056583668E-01  0.00000E+00  9.000E+00
       1     1     1     2   511     0 -1.217631354E+00  2.194863411E-01 -6.106425463E+02  6.106437998E+02  0.000000000E+00  0.00000E+00  9.000E+00
#pdf   1 -1 0.28203588E-03 0.99117490E-02 0.21735552E+02 0.16689981E+01 0.47573775E+00
#rwgt            1           6   179.85767072693778         54217137    18546200           0
</event>
<event>
      6  10013  3.31628E+03  9.34925E-01 -1.00000E+00  7.08226E-01
       2    -1     0     0   501     0  0.000000000E+00  0.000000000E+00  1.680429982E+03  1.680429982E+03  0.000000000E+00  0.00000E+00  9.000E+00
      -2    -1     0     0     0   511  0.000000000E+00  0.000000000E+00 -1.095546772E-01  1.095546772E-01  0.000000000E+00  0.00000E+00  9.000E+00
      23     2     1     2     0     0 -8.663943001E-01 -3.513483731E-01  1.674832218E+03  1.674972263E+03  2.163913709E+01  0.00000E+00  9.000E+00
      13     1     3     3     0     0  1.596980930E+00 -5.560357832E+00  1.293978422E+02  1.295271425E+02  1.056583668E-01  0.00000E+00  9.000E+00
     -13     1     3     3     0     0 -2.463375230E+00  5.209009458E+00  1.545434375E+03  1.545445121E+03  1.056583668E-01  0.00000E+00  9.000E+00
      21     1     1     2   501   511  8.663943001E-01  3.513483731E-01  5.488209379E+00  5.567272847E+00  6.251387883E-07  0.00000E+00  9.000E+00
#pdf   2 -2 0.25743710E+00 0.10762720E-04 0.21639137E+02 0.46970866E+00 0.43692067E+01
#rwgt            1           7   4260.3266376329875         54217137    18546354           0
</event>
<event>
      6  10013  3.31628E+03  1.67496E+01 -1.00000E+00  1.72940E-01
      21    -1     0     0   511   501  0.000000000E+00  0.000000000E+00  1.919798422E+00  1.919798422E+00  0.000000000E+00  0.00000E+00  9.000E+00
       2    -1     0     0   501     0  0.000000000E+00  0.000000000E+00 -2.171883353E+03  2.171883353E+03  0.000000000E+00  0.00000E+00  9.000E+00
      23     2     1     2     0     0 -1.620094510E+01  4.252038858E+00 -2.085834674E+03  2.088023089E+03  9.409349120E+01  0.00000E+00  9.000E+00
      13     1     3     3     0     0 -5.288482654E+01 -4.154650305E-01 -8.557440363E+02  8.573767225E+02  1.056583668E-01  0.00000E+00  9.000E+00
     -13     1     3     3     0     0  3.668388144E+01  4.667503889E+00 -1.230090637E+03  1.230646367E+03  1.056583668E-01  0.00000E+00  9.000E+00
       2     1     1     2   511     0  1.620094510E+01 -4.252038858E+00 -8.412888114E+01  8.578006236E+01  0.000000000E+00  0.00000E+00  9.000E+00
#pdf  -2  2 0.16573427E-03 0.31609684E+00 0.94093491E+02 0.28670555E+01 0.31922143E+00
#rwgt            1           4   1743.6961511876918         54217137    18546714           0
</event>
<event>
      6  10013  3.31628E+03  7.66057E+00 -1.00000E+00  2.10096E-01
       2    -1     0     0   501     0  0.000000000E+00  0.000000000E+00  2.306753133E+03  2.306753133E+03  0.000000000E+00  0.00000E+00  9.000E+00
      21    -1     0     0   511   501  0.000000000E+00  0.000000000E+00 -1.076910353E+00  1.076910353E+00  0.000000000E+00  0.00000E+00  9.000E+00
      23     2     1     2     0     0  1.827616421E+00  7.439363993E+00  2.153086960E+03  2.155048606E+03  9.160980018E+01  0.00000E+00  9.000E+00
      13     1     3     3     0     0  4.097895582E+01 -1.059714936E+00  5.778201579E+02  5.792724263E+02  1.056583668E-01  0.00000E+00  9.000E+00
     -13     1     3     3     0     0 -3.915133940E+01  8.499078929E+00  1.575266802E+03  1.575776180E+03  1.056583668E-01  0.00000E+00  9.000E+00
       2     1     1     2   511     0 -1.827616421E+00 -7.439363993E+00  1.525892629E+02  1.527814370E+02  0.000000000E+00  0.00000E+00  9.000E+00
#pdf   2 -2 0.33024243E+00 0.15037107E-03 0.91609800E+02 0.29987877E+00 0.29513341E+01
#rwgt            1           7   1475.6110655406976         54217137    18546852           0
</event>
<event>
      6  10013 -3.31628E+03  6.05444E+00 -1.00000E+00  2.24786E-01
      21    -1     0     0   501   511  0.000000000E+00  0.000000000E+00  1.939871637E+03  1.939871637E+03  0.000000000E+00  0.00000E+00  9.000E+00
      -5    -1     0     0     0   501  0.000000000E+00  0.000000000E+00 -1.405681590E+00  1.405681590E+00  0.000000000E+00  0.00000E+00  9.000E+00
      23     2     1     2     0     0  5.184830418E+00  3.126307618E+00  1.885554831E+02  1.913563726E+02  3.205362452E+01  0.00000E+00  9.000E+00
      13     1     3     3     0     0  9.661590335E+00  3.122190208E+00  1.742788007E+01  2.017019006E+01  1.056583668E-01  0.00000E+00  9.000E+00
     -13     1     3     3     0     0 -4.476759917E+00  4.117410351E-03  1.711276030E+02  1.711861825E+02  1.056583668E-01  0.00000E+00  9.000E+00
      -5     1     1     2     0   511 -5.184830418E+00 -3.126307618E+00  1.749910472E+03  1.749920946E+03  0.000000000E+00  0.00000E+00  9.000E+00
#pdf   5 -5 0.28716217E-01 0.21170950E-03 0.32053625E+02 0.68707029E-01 0.11098284E+01
#rwgt            1          10  -136.79422465988648         54217137    18546945           0
</event>
<event>
      6  10013  3.31628E+03  6.28366E+00 -1.00000E+00  2.22325E-01
       2    -1     0     0   501     0  0.000000000E+00  0.000000000E+00  2.174377781E+00  2.174377781E+00  0.000000000E+00  0.00000E+00  9.000E+00
      -2    -1     0     0     0   511  0.000000000E+00  0.000000000E+00 -1.218670553E+03  1.218670553E+03  0.000000000E+00  0.00000E+00  9.000E+00
      23     2     1     2     0     0  5.784703497E+00  2.453883795E+00 -1.009828384E+03  1.014081636E+03  9.256734860E+01  0.00000E+00  9.000E+00
      13     1     3     3     0     0 -6.073397749E+00 -4.257544292E+01 -3.541163574E+02  3.567183206E+02  1.056583668E-01  0.00000E+00  9.000E+00
     -13     1     3     3     0     0  1.185810125E+01  4.502932671E+01 -6.557120268E+02  6.573633152E+02  1.056583668E-01  0.00000E+00  9.000E+00
      21     1     1     2   501   511 -5.784703497E+00 -2.453883795E+00 -2.066677906E+02  2.067632947E+02  2.697398305E-06  0.00000E+00  9.000E+00
#pdf   2 -2 0.32642199E-03 0.15532792E+00 0.92567349E+02 0.22700079E+01 0.43918979E-01
#rwgt            1           7   137.50321928676229         54217137    18547384           0
</event>
<event>
      6  10013  3.31628E+03  6.95551E+00 -1.00000E+00  2.15874E-01
       2    -1     0     0   501     0  0.000000000E+00  0.000000000E+00  1.472849098E+02  1.472849098E+02  0.000000000E+00  0.00000E+00  9.000E+00
      21    -1     0     0   511   501  0.000000000E+00  0.000000000E+00 -5.070221456E+00  5.070221456E+00  0.000000000E+00  0.00000E+00  9.000E+00
      23     2     1     2     0     0 -3.872449311E+00  5.777823533E+00  1.435469621E+02  1.452731779E+02  2.121760568E+01  0.00000E+00  9.000E+00
      13     1     3     3     0     0  8.805760171E+00  3.129791789E+00  6.393273029E+01  6.461224477E+01  1.056583668E-01  0.00000E+00  9.000E+00
     -13     1     3     3     0     0 -1.267820948E+01  2.648031743E+00  7.961423183E+01  8.066093318E+01  1.056583668E-01  0.00000E+00  9.000E+00
       2     1     1     2   511     0  3.872449311E+00 -5.777823533E+00 -1.332273817E+00  7.081953259E+00  0.000000000E+00  0.00000E+00  9.000E+00
#pdf   2 -2 0.21111506E-01 0.12617893E-03 0.21217606E+02 0.63042044E+00 0.20968141E+01
#rwgt            1           7   995.59113600857313         54217137    18547469           0
</event>
<event>
      6  10013  3.31628E+03  2.17349E+01 -1.00000E+00  1.63402E-01
      -3    -1     0     0     0   501  0.000000000E+00  0.000000000E+00  1.106703118E+02  1.106703118E+02  0.000000000E+00  0.00000E+00  9.000E+00
      21    -1     0     0   501   511  0.000000000E+00  0.000000000E+00 -2.460768295E+01  2.460768295E+01  0.000000000E+00  0.00000E+00  9.000E+00
      23     2     1     2     0     0 -1.484145623E+01  1.587886531E+01  9.607344478E+01  1.113484394E+02  5.192264411E+01  0.00000E+00  9.000E+00
      13     1     3     3     0     0 -4.350913065E+00 -7.837903385E+00  8.070861872E+01  8.120502124E+01  1.056583668E-01  0.00000E+00  9.000E+00
     -13     1     3     3     0     0 -1.049054316E+01  2.371676870E+01  1.536482606E+01  3.014341813E+01  1.056583668E-01  0.00000E+00  9.000E+00
      -3     1     1     2     0   511  1.484145623E+01 -1.587886531E+01 -1.001081591E+01  2.392955540E+01  0.000000000E+00  0.00000E+00  9.000E+00
#pdf  -3  3 0.14718048E-01 0.10838687E-02 0.51922644E+02 0.37581836E+00 0.12334392E+01
#rwgt            1           3   353.17617247643199         54217137    18547496           0
</event>
<event>
      5  10013  3.31628E+03  8.94427E-01 -1.00000E+00  7.34816E-01
      -2    -1     0     0     0   501  0.000000000E+00  0.000000000E+00  1.856404242E-01  1.856404242E-01  0.000000000E+00  0.00000E+00  9.000E+00
       2    -1     0     0   501     0  0.000000000E+00  0.000000000E+00 -1.384589433E+03  1.384589433E+03  0.000000000E+00  0.00000E+00  9.000E+00
      23     2     1     2     0     0  0.000000000E+00  0.000000000E+00 -1.384403793E+03  1.384775074E+03  3.206467026E+01  0.00000E+00  9.000E+00
      13     1     3     3     0     0 -5.834095361E+00 -1.331338265E+01 -4.001170755E+02  4.003810287E+02  1.056583668E-01  0.00000E+00  9.000E+00
     -13     1     3     3     0     0  5.834095361E+00  1.331338265E+01 -9.842867175E+02  9.843940452E+02  1.056583668E-01  0.00000E+00  9.000E+00
#pdf  -2  2 0.28560065E-04 0.21301376E+00 0.32064670E+02 0.38044024E+01 0.51272028E+00
#rwgt            1           4   4241.9417432592954         54217137    18547535           0
</event>
<event>
      6  10013  3.31628E+03  2.01156E+00 -1.00000E+00  3.61695E-01
       2    -1     0     0   511     0  0.000000000E+00  0.000000000E+00  5.808495703E+02  5.808495703E+02  0.000000000E+00  0.00000E+00  9.000E+00
      -2    -1     0     0     0   501  0.000000000E+00  0.000000000E+00 -9.610598797E-01  9.610598797E-01  0.000000000E+00  0.00000E+00  9.000E+00
      23     2     1     2     0     0  2.006156397E+00 -1.472938699E-01  3.913362603E+02  3.932476503E+02  3.867298120E+01  0.00000E+00  9.000E+00
      13     1     3     3     0     0 -5.236511570E+00 -1.779569902E+01  1.466024539E+02  1.477714405E+02  1.056583668E-01  0.00000E+00  9.000E+00
     -13     1     3     3     0     0  7.242667968E+00  1.764840515E+01  2.447338063E+02  2.454762098E+02  1.056583668E-01  0.00000E+00  9.000E+00
      21     1     1     2   511   501 -2.006156397E+00  1.472938699E-01  1.885522502E+02  1.885629800E+02  0.000000000E+00  0.00000E+00  9.000E+00
#pdf   2 -2 0.60271132E-01 0.14683151E-03 0.38672981E+02 0.62851932E+00 0.23996168E+01
#rwgt            1           7   2847.0086310881320         54217137    18547994           0
</event>
<event>
      6  10013  3.31628E+03  5.56181E+00 -1.00000E+00  2.30629E-01
       2    -1     0     0   501     0  0.000000000E+00  0.000000000E+00  1.333264130E+03  1.333264130E+03  0.000000000E+00  0.00000E+00  9.000E+00
      21    -1     0     0   511   501  0.000000000E+00  0.000000000E+00 -1.789417617E+00  1.789417617E+00  0.000000000E+00  0.00000E+00  9.000E+00
      23     2     1     2     0     0  1.920509861E+00 -5.219708784E+00  1.282740234E+03  1.286002726E+03  9.137597950E+01  0.00000E+00  9.000E+00
      13     1     3     3     0     0  7.069009390E+00  3.560728568E+01  9.549255388E+02  9.556153230E+02  1.056583668E-01  0.00000E+00  9.000E+00
     -13     1     3     3     0     0 -5.148499530E+00 -4.082699446E+01  3.278146956E+02  3.303874034E+02  1.056583668E-01  0.00000E+00  9.000E+00
       2     1     1     2   511     0 -1.920509861E+00  5.219708784E+00  4.873447748E+01  4.905082072E+01  0.000000000E+00  0.00000E+00  9.000E+00
#pdf   2 -2 0.19723060E+00 0.25049733E-03 0.91375980E+02 0.49444089E+00 0.24522113E+01
#rwgt            1           7   1688.8532653577734         54217137    18548108           0
</event>
<event>
      6  10013  3.31628E+03  6.13699E+00 -1.00000E+00  2.23883E-01
       3    -1     0     0   501     0  0.000000000E+00  0.000000000E+00  2.659463850E+02  2.659463850E+02  0.000000000E+00  0.00000E+00  9.000E+00
      21    -1     0     0   511   501  0.000000000E+00  0.000000000E+00 -1.181329055E+01  1.181329055E+01  0.000000000E+00  0.00000E+00  9.000E+00
      23     2     1     2     0     0  9.175593655E-01 -6.068005283E+00  2.551779413E+02  2.715343797E+02  9.261465869E+01  0.00000E+00  9.000E+00
      13     1     3     3     0     0 -2.901026113E+00  3.728657695E+01  1.866041198E+02  1.903150374E+02  1.056583668E-01  0.00000E+00  9.000E+00
     -13     1     3     3     0     0  3.818585478E+00 -4.335458223E+01  6.857382148E+01  8.121934223E+01  1.056583668E-01  0.00000E+00  9.000E+00
       3     1     1     2   511     0 -9.175593655E-01  6.068005283E+00 -1.044846901E+00  6.225295845E+00  0.000000000E+00  0.00000E+00  9.000E+00
#pdf   3 -3 0.40427673E-01 0.12554344E-02 0.92614659E+02 0.18443819E+00 0.12876484E+01
#rwgt            1           8   353.68534600238183         54217137    18548215           0
</event>
<event>
      6  10013  3.31628E+03  9.13323E+00 -1.00000E+00  2.00361E-01
      21    -1     0     0   511   501  0.000000000E+00  0.000000000E+00  1.331920765E+00  1.331920765E+00  0.000000000E+00  0.00000E+00  9.000E+00
       1    -1     0     0   501     0  0.000000000E+00  0.000000000E+00 -4.457888207E+02  4.457888207E+02  0.000000000E+00  0.00000E+00  9.000E+00
      23     2     1     2     0     0 -1.226337270E+00  9.050523615E+00 -4.231469196E+02  4.239360236E+02  2.418720032E+01  0.00000E+00  9.000E+00
      13     1     3     3     0     0 -2.864563340E-01  1.126348169E+01 -8.092686493E+01  8.170750704E+01  1.056583668E-01  0.00000E+00  9.000E+00
     -13     1     3     3     0     0 -9.398809359E-01 -2.212958078E+00 -3.422200546E+02  3.422285165E+02  1.056583668E-01  0.00000E+00  9.000E+00
       1     1     1     2   511     0  1.226337270E+00 -9.050523615E+00 -2.130998041E+01  2.318471793E+01  0.000000000E+00  0.00000E+00  9.000E+00
#pdf  -1  1 0.56786670E-04 0.60959037E-01 0.24187200E+02 0.27996322E+01 0.43020067E+00
#rwgt            1           5   352.44223188102029         54217137    18548274           0
</event>
<event>
      6  10013  3.31628E+03  7.48183E+00 -1.00000E+00  2.11478E-01
      -3    -1     0     0     0   501  0.000000000E+00  0.000000000E+00  6.798167788E+02  6.798167788E+02  0.000000000E+00  0.00000E+00  9.000E+00
      21    -1     0     0   501   511  0.000000000E+00  0.000000000E+00 -4.211985889E+00  4.211985889E+00  0.000000000E+00  0.00000E+00  9.000E+00
      23     2     1     2     0     0  3.469517134E+00  6.628747712E+00  6.654236129E+02  6.713941190E+02  8.902528057E+01  0.00000E+00  9.000E+00
      13     1     3     3     0     0 -2.956634072E+01  2.698292897E+01  1.787959148E+02  1.832218253E+02  1.056583668E-01  0.00000E+00  9.000E+00
     -13     1     3     3     0     0  3.303585786E+01 -2.035418126E+01  4.866276981E+02  4.881722937E+02  1.056583668E-01  0.00000E+00  9.000E+00
      -3     1     1     2     0   511 -3.469517134E+00 -6.628747712E+00  1.018118005E+01  1.263464572E+01  0.000000000E+00  0.00000E+00  9.000E+00
#pdf  -3  3 0.10247089E+00 0.45765633E-03 0.89025281E+02 0.60981906E-01 0.19032519E+01
#rwgt            1           3   183.80722395135842         54217137    18548317           0
</event>
<event>
      6  10013  3.31628E+03  4.12767E+00 -1.00000E+00  2.60190E-01
       1    -1     0     0   511     0  0.000000000E+00  0.000000000E+00  1.029251298E+02  1.029251298E+02  0.000000000E+00  0.00000E+00  9.000E+00
      -1    -1     0     0     0   501  0.000000000E+00  0.000000000E+00 -4.784466556E+01  4.784466556E+01  0.000000000E+00  0.00000E+00  9.000E+00
      23     2     1     2     0     0 -3.051702596E+00  2.779352853E+00 -2.768396098E+00  9.277386158E+01  9.264063733E+01  0.00000E+00  9.000E+00
      13     1     3     3     0     0  6.531028759E+00  3.506951289E+01 -3.219138073E+01  4.805019488E+01  1.056583668E-01  0.00000E+00  9.000E+00
     -13     1     3     3     0     0 -9.582731355E+00 -3.229016003E+01  2.942298463E+01  4.472366671E+01  1.056583668E-01  0.00000E+00  9.000E+00
      21     1     1     2   511   501  3.051702596E+00 -2.779352853E+00  5.784886038E+01  5.799593381E+01  1.168007728E-06  0.00000E+00  9.000E+00
#pdf   1 -1 0.69166352E-02 0.73421202E-02 0.92640637E+02 0.75989115E+00 0.62748060E+00
#rwgt            1           6   490.31203073495044         54217137    18548403           0
</event>
<event>
      6  10013  3.31628E+03  2.98615E+00 -1.00000E+00  2.97339E-01
       3    -1     0     0   501     0  0.000000000E+00  0.000000000E+00  1.759884138E+01  1.759884138E+01  0.000000000E+00  0.00000E+00  9.000E+00
      -3    -1     0     0     0   511  0.000000000E+00  0.000000000E+00 -1.399309926E+02  1.399309926E+02  0.000000000E+00  0.00000E+00  9.000E+00
      23     2     1     2     0     0  1.413066276E+00  2.630649925E+00 -1.053970805E+02  1.403335061E+02  9.260686400E+01  0.00000E+00  9.000E+00
      13     1     3     3     0     0  2.535551045E+01  3.763538264E+01 -3.187221203E+01  5.545424240E+01  1.056583668E-01  0.00000E+00  9.000E+00
     -13     1     3     3     0     0 -2.394244418E+01 -3.500473272E+01 -7.352486850E+01  8.487926365E+01  1.056583668E-01  0.00000E+00  9.000E+00
      21     1     1     2   501   511 -1.413066276E+00 -2.630649925E+00 -1.693507071E+01  1.719632796E+01  4.129530925E-07  0.00000E+00  9.000E+00
#pdf   3 -3 0.26860213E-02 0.18892533E-01 0.92606864E+02 0.93207766E+00 0.33294041E+00
#rwgt            1           8   444.36071692926663         54217137    18548460           0
</event>
<event>
      6  10013  3.31628E+03  7.44486E+00 -1.00000E+00  2.11771E-01
       1    -1     0     0   511     0  0.000000000E+00  0.000000000E+00  1.665496853E+00  1.665496853E+00  0.000000000E+00  0.00000E+00  9.000E+00
      -1    -1     0     0     0   501  0.000000000E+00  0.000000000E+00 -5.308751787E+02  5.308751787E+02  0.000000000E+00  0.00000E+00  9.000E+00
      23     2     1     2     0     0  6.795062181E+00 -3.041897688E+00 -4.930631747E+02  4.956354457E+02  4.987759795E+01  0.00000E+00  9.000E+00
      13     1     3     3     0     0  1.410118865E+01 -2.310078991E+01 -3.422991458E+02  3.433674510E+02  1.056583668E-01  0.00000E+00  9.000E+00
     -13     1     3     3     0     0 -7.306126473E+00  2.005889222E+01 -1.507640289E+02  1.522679947E+02  1.056583668E-01  0.00000E+00  9.000E+00
      21     1     1     2   511   501 -6.795062181E+00  3.041897688E+00 -3.614650714E+01  3.690522985E+01  8.259061849E-07  0.00000E+00  9.000E+00
#pdf   1 -1 0.19569899E-03 0.75220425E-01 0.49877598E+02 0.23518685E+01 0.15660568E+00
#rwgt            1           6   252.35058287373553         54217137    18548569           0
</event>
<event>
      6  10013  3.31628E+03  1.45093E+01 -1.00000E+00  1.78707E-01
      21    -1     0     0   511   501  0.000000000E+00  0.000000000E+00  2.421674017E+02  2.421674017E+02  0.000000000E+00  0.00000E+00  9.000E+00
       5    -1     0     0   501     0  0.000000000E+00  0.000000000E+00 -1.594630692E+01  1.594630692E+01  0.000000000E+00  0.00000E+00  9.000E+00
      23     2     1     2     0     0  7.023662362E+00  1.269598182E+01  1.198989640E+02  1.508061353E+02  9.031173290E+01  0.00000E+00  9.000E+00
      13     1     3     3     0     0  1.783185648E+01  3.673885292E+01  1.174320039E+02  1.243302261E+02  1.056583668E-01  0.00000E+00  9.000E+00
     -13     1     3     3     0     0 -1.080819412E+01 -2.404287110E+01  2.466960028E+00  2.647590917E+01  1.056583668E-01  0.00000E+00  9.000E+00
       5     1     1     2   511     0 -7.023662362E+00 -1.269598182E+01  1.063221308E+02  1.073075733E+02  0.000000000E+00  0.00000E+00  9.000E+00
#pdf  -5  5 0.20559825E-01 0.23473737E-02 0.90311733E+02 0.12294850E+00 0.54679169E+00
#rwgt            1           1   74.034428845606158         54217137    18548694           0
</event>
<event>
      6  10013  3.31628E+03  2.57756E+00 -1.00000E+00  3.18255E-01
      -1    -1     0     0     0   501  0.000000000E+00  0.000000000E+00  1.156067469E+00  1.156067469E+00  0.000000000E+00  0.00000E+00  9.000E+00
       1    -1     0     0   511     0  0.000000000E+00  0.000000000E+00 -2.579170615E+03  2.579170615E+03  0.000000000E+00  0.00000E+00  9.000E+00
      23     2     1     2     0     0 -3.105292178E-01  2.558784883E+00 -1.818003106E+03  1.820310870E+03  9.159545038E+01  0.00000E+00  9.000E+00
      13     1     3     3     0     0 -1.186737755E+01 -2.463226511E+01 -1.821254712E+02  1.841664506E+02  1.056583668E-01  0.00000E+00  9.000E+00
     -13     1     3     3     0     0  1.155684833E+01  2.719104999E+01 -1.635877635E+03  1.636144420E+03  1.056583668E-01  0.00000E+00  9.000E+00
      21     1     1     2   511   501  3.105292178E-01 -2.558784883E+00 -7.600114408E+02  7.600158116E+02  0.000000000E+00  0.00000E+00  9.000E+00
#pdf  -1  1 0.17745007E-03 0.27975956E+00 0.91595450E+02 0.27852149E+01 0.14870369E+00
#rwgt            1           5   752.92767910485213         54217137    18548989           0
</event>
<event>
      6  10013  3.31628E+03  1.65955E+00 -1.00000E+00  4.05398E-01
       2    -1     0     0   511     0  0.000000000E+00  0.000000000E+00  1.037623431E+03  1.037623431E+03  0.000000000E+00  0.00000E+00  9.000E+00
      -2    -1     0     0     0   501  0.000000000E+00  0.000000000E+00 -1.362579985E-01  1.362579985E-01  0.000000000E+00  0.00000E+00  9.000E+00
      23     2     1     2     0     0  6.427314346E-01 -1.530032245E+00  9.086892212E+02  9.089510461E+02  2.175199627E+01  0.00000E+00  9.000E+00
      13     1     3     3     0     0 -7.287974687E+00  6.868471071E+00  4.909273736E+02  4.910295183E+02  1.056583668E-01  0.00000E+00  9.000E+00
     -13     1     3     3     0     0  7.930706122E+00 -8.398503315E+00  4.177618475E+02  4.179215278E+02  1.056583668E-01  0.00000E+00  9.000E+00
      21     1     1     2   511   501 -6.427314346E-01  1.530032245E+00  1.287979514E+02  1.288086425E+02  0.000000000E+00  0.00000E+00  9.000E+00
#pdf   2 -2 0.13941332E+00 0.20082014E-04 0.21751996E+02 0.60519562E+00 0.36587971E+01
#rwgt            1           7   2862.8243143691780         54217137    18549141           0
</event>
<event>
      6  10013  3.31628E+03  9.15564E+00 -1.00000E+00  2.00232E-01
       1    -1     0     0   511     0  0.000000000E+00  0.000000000E+00  4.604930374E+02  4.604930374E+02  0.000000000E+00  0.00000E+00  9.000E+00
      -1    -1     0     0     0   501  0.000000000E+00  0.000000000E+00 -1.438702341E+01  1.438702341E+01  0.000000000E+00  0.00000E+00  9.000E+00
      23     2     1     2     0     0 -4.219526939E+00 -8.125346249E+00  1.391253942E+02  1.677629389E+02  9.329899619E+01  0.00000E+00  9.000E+00
      13     1     3     3     0     0  2.604508384E+01  1.780194401E+01  1.190130368E+02  1.231233922E+02  1.056583668E-01  0.00000E+00  9.000E+00
     -13     1     3     3     0     0 -3.026461078E+01 -2.592729026E+01  2.011235735E+01  4.463954669E+01  1.056583668E-01  0.00000E+00  9.000E+00
      21     1     1     2   511   501  4.219526939E+00  8.125346249E+00  3.069806198E+02  3.071171220E+02  3.814697266E-06  0.00000E+00  9.000E+00
#pdf   1 -1 0.23493943E-01 0.21923572E-02 0.93298996E+02 0.53311018E+00 0.10656801E+01
#rwgt            1           6   903.87023327698842         54217137    18549269           0
</event>
<event>
      6  10013  3.31628E+03  7.09560E+00 -1.00000E+00  2.14654E-01
       2    -1     0     0   501     0  0.000000000E+00  0.000000000E+00  9.578081966E+01  9.578081966E+01  0.000000000E+00  0.00000E+00  9.000E+00
      21    -1     0     0   511   501  0.000000000E+00  0.000000000E+00 -3.552435256E+00  3.552435256E+00  0.000000000E+00  0.00000E+00  9.000E+00
      23     2     1     2     0     0 -6.694574516E+00  2.351653229E+00  6.315176906E+01  6.940338420E+01  2.789867744E+01  0.00000E+00  9.000E+00
      13     1     3     3     0     0 -2.343178705E+00 -7.236157216E+00  2.746814985E+00  8.087559208E+00  1.056583668E-01  0.00000E+00  9.000E+00
     -13     1     3     3     0     0 -4.351395811E+00  9.587810444E+00  6.040495407E+01  6.131582500E+01  1.056583668E-01  0.00000E+00  9.000E+00
       2     1     1     2   511     0  6.694574516E+00 -2.351653229E+00  2.907661534E+01  2.992987071E+01  0.000000000E+00  0.00000E+00  9.000E+00
#pdf   2 -2 0.98819455E-02 0.46605597E-03 0.27898677E+02 0.69572123E+00 0.14979748E+01
#rwgt            1           7   761.68736177416031         54217137    18549419           0
</event>
<event>
      6  10013  3.31628E+03  6.68980E+00 -1.00000E+00  2.18301E-01
       2    -1     0     0   501     0  0.000000000E+00  0.000000000E+00  1.129226505E+03  1.129226505E+03  0.000000000E+00  0.00000E+00  9.000E+00
      21    -1     0     0   511   501  0.000000000E+00  0.000000000E+00 -2.223912155E-01  2.223912155E-01  0.000000000E+00  0.00000E+00  9.000E+00
      23     2     1     2     0     0  1.950198216E+00 -6.399227143E+00  1.002542060E+03  1.002810022E+03  2.219470757E+01  0.00000E+00  9.000E+00
      13     1     3     3     0     0  1.106439922E+01 -4.757148278E+00  7.527086397E+02  7.528049939E+02  1.056583668E-01  0.00000E+00  9.000E+00
     -13     1     3     3     0     0 -9.114201004E+00 -1.642078865E+00  2.498334200E+02  2.500050279E+02  1.056583668E-01  0.00000E+00  9.000E+00
       2     1     1     2   511     0 -1.950198216E+00  6.399227143E+00  1.264620542E+02  1.266388745E+02  0.000000000E+00  0.00000E+00  9.000E+00
#pdf   2 -2 0.14769462E+00 0.19735470E-04 0.22194708E+02 0.59827808E+00 0.37067734E+01
#rwgt            1           7   2914.3198778132241         54217137    18549476           0
</event>
<event>
      6  10013  3.31628E+03  1.68666E+01 -1.00000E+00  1.72671E-01
      21    -1     0     0   511   501  0.000000000E+00  0.000000000E+00  3.347868739E+01  3.347868739E+01  0.000000000E+00  0.00000E+00  9.000E+00
       2    -1     0     0   501     0  0.000000000E+00  0.000000000E+00 -9.786518331E+01  9.786518331E+01  0.000000000E+00  0.00000E+00  9.000E+00
      23     2     1     2     0     0  1.685940705E+01 -4.942045531E-01 -6.709225451E+01  1.142615707E+02  9.093872705E+01  0.00000E+00  9.000E+00
      13     1     3     3     0     0 -3.087952830E+01 -2.403928793E+01 -3.139154645E+01  5.016844611E+01  1.056583668E-01  0.00000E+00  9.000E+00
     -13     1     3     3     0     0  4.773893535E+01  2.354508338E+01 -3.570070807E+01  6.409312459E+01  1.056583668E-01  0.00000E+00  9.000E+00
       2     1     1     2   511     0 -1.685940705E+01  4.942045531E-01  2.705758595E+00  1.708230001E+01  0.000000000E+00  0.00000E+00  9.000E+00
#pdf  -2  2 0.35675654E-02 0.13716367E-01 0.90938727E+02 0.85244710E+00 0.71824945E+00
#rwgt            1           4   659.44836515564100         54217137    18549519           0
</event>
<event>
      6  10013  3.31628E+03  5.56849E+00 -1.00000E+00  2.30544E-01
       1    -1     0     0   501     0  0.000000000E+00  0.000000000E+00  8.868074943E+02  8.868074943E+02  0.000000000E+00  0.00000E+00  9.000E+00
      21    -1     0     0   511   501  0.000000000E+00  0.000000000E+00 -6.677742587E+00  6.677742587E+00  0.000000000E+00  0.00000E+00  9.000E+00
      23     2     1     2     0     0  5.021593227E+00 -2.406595144E+00  8.826509165E+02  8.873725967E+02  9.124953100E+01  0.00000E+00  9.000E+00
      13     1     3     3     0     0 -2.960766964E+01 -2.431779986E+01  2.094465109E+02  2.129221021E+02  1.056583668E-01  0.00000E+00  9.000E+00
     -13     1     3     3     0     0  3.462926287E+01  2.191120472E+01  6.732044056E+02  6.744504946E+02  1.056583668E-01  0.00000E+00  9.000E+00
       1     1     1     2   511     0 -5.021593227E+00  2.406595144E+00 -2.521164744E+00  6.112640214E+00  0.000000000E+00  0.00000E+00  9.000E+00
#pdf   1 -1 0.13590284E+00 0.36253176E-03 0.91249531E+02 0.31143465E+00 0.21440114E+01
#rwgt            1           6   753.02441251880691         54217137    18549602           0
</event>
<event>
      6  10013  3.31628E+03  1.40670E+01 -1.00000E+00  1.80003E-01
      -2    -1     0     0     0   501  0.000000000E+00  0.000000000E+00  3.694520735E+00  3.694520735E+00  0.000000000E+00  0.00000E+00  9.000E+00
       2    -1     0     0   511     0  0.000000000E+00  0.000000000E+00 -9.958177229E+02  9.958177229E+02  0.000000000E+00  0.00000E+00  9.000E+00
      23     2     1     2     0     0 -4.857173691E+00  1.320182689E+01 -6.319008824E+02  6.390153642E+02  9.404270432E+01  0.00000E+00  9.000E+00
      13     1     3     3     0     0  2.578913269E+01  2.666540068E+01 -1.108926928E+02  1.169329869E+02  1.056583668E-01  0.00000E+00  9.000E+00
     -13     1     3     3     0     0 -3.064630638E+01 -1.346357380E+01 -5.210081896E+02  5.220823773E+02  1.056583668E-01  0.00000E+00  9.000E+00
      21     1     1     2   511   501  4.857173691E+00 -1.320182689E+01 -3.602223198E+02  3.604968794E+02  3.814697266E-06  0.00000E+00  9.000E+00
#pdf  -2  2 0.54124629E-03 0.96687111E-01 0.94042704E+02 0.18488924E+01 0.60435682E+00
#rwgt            1           4   936.80386039189011         54217137    18549707           0
</event>
<event>
      6  10013  3.31628E+03  1.51082E+01 -1.00000E+00  1.77043E-01
       4    -1     0     0   511     0  0.000000000E+00  0.000000000E+00  1.130511996E+02  1.130511996E+02  0.000000000E+00  0.00000E+00  9.000E+00
      -4    -1     0     0     0   501  0.000000000E+00  0.000000000E+00 -2.827988201E+01  2.827988201E+01  0.000000000E+00  0.00000E+00  9.000E+00
      23     2     1     2     0     0 -1.105197172E+01 -1.030108462E+01  5.628746512E+01  1.090884348E+02  9.221577659E+01  0.00000E+00  9.000E+00
      13     1     3     3     0     0 -1.668344657E+01  2.087615014E+01 -1.530703672E+01  3.079720070E+01  1.056583668E-01  0.00000E+00  9.000E+00
     -13     1     3     3     0     0  5.631474856E+00 -3.117723476E+01  7.159450184E+01  7.829123408E+01  1.056583668E-01  0.00000E+00  9.000E+00
      21     1     1     2   511   501  1.105197172E+01  1.030108462E+01  2.848385251E+01  3.224264686E+01  4.768371582E-07  0.00000E+00  9.000E+00
#pdf   4 -4 0.12553853E-01 0.40081754E-02 0.92215777E+02 0.29946199E+00 0.60342044E+00
#rwgt            1           9   116.26212479502861         54217137    18549825           0
</event>
<event>
      6  10013  3.31628E+03  2.78700E+01 -1.00000E+00  1.55259E-01
       4    -1     0     0   511     0  0.000000000E+00  0.000000000E+00  3.720823285E+02  3.720823285E+02  0.000000000E+00  0.00000E+00  9.000E+00
      -4    -1     0     0     0   501  0.000000000E+00  0.000000000E+00 -1.056561893E+01  1.056561893E+01  0.000000000E+00  0.00000E+00  9.000E+00
      23     2     1     2     0     0 -2.218686306E+01 -1.686652749E+01  2.768531900E+02  2.935151915E+02  9.341703354E+01  0.00000E+00  9.000E+00
      13     1     3     3     0     0 -5.350603495E+01 -9.980580672E+00  2.324864300E+02  2.387728189E+02  1.056583668E-01  0.00000E+00  9.000E+00
     -13     1     3     3     0     0  3.131917189E+01 -6.885946816E+00  4.436676001E+01  5.474237252E+01  1.056583668E-01  0.00000E+00  9.000E+00
      21     1     1     2   511   501  2.218686306E+01  1.686652749E+01  8.466351956E+01  8.913275596E+01  0.000000000E+00  0.00000E+00  9.000E+00
#pdf   4 -4 0.42043306E-01 0.12281986E-02 0.93417034E+02 0.10351011E+00 0.10798950E+01
#rwgt            1           9   125.81537724099266         54217137    18549932           0
</event>
<event>
      6  10013  3.31628E+03  3.74201E+00 -1.00000E+00  2.70370E-01
      -3    -1     0     0     0   501  0.000000000E+00  0.000000000E+00  2.312907382E+01  2.312907382E+01  0.000000000E+00  0.00000E+00  9.000E+00
      21    -1     0     0   501   511  0.000000000E+00  0.000000000E+00 -1.890382795E+01  1.890382795E+01  0.000000000E+00  0.00000E+00  9.000E+00
      23     2     1     2     0     0  1.499758201E+00  3.428317415E+00  6.772266184E+00  3.750631946E+01  3.669956097E+01  0.00000E+00  9.000E+00
      13     1     3     3     0     0  1.511255467E+01  7.938988952E+00 -6.206308171E+00  1.816442345E+01  1.056583668E-01  0.00000E+00  9.000E+00
     -13     1     3     3     0     0 -1.361279647E+01 -4.510671537E+00  1.297857435E+01  1.934189602E+01  1.056583668E-01  0.00000E+00  9.000E+00
      -3     1     1     2     0   511 -1.499758201E+00 -3.428317415E+00 -2.547020310E+00  4.526582312E+00  0.000000000E+00  0.00000E+00  9.000E+00
#pdf  -3  3 0.33884764E-02 0.23519634E-02 0.36699561E+02 0.73751864E+00 0.85530675E+00
#rwgt            1           3   105.38552747927585         54217137    18549996           0
</event>
<event>
      6  10013  3.31628E+03  1.35779E+00 -1.00000E+00  4.81176E-01
      -2    -1     0     0     0   511  0.000000000E+00  0.000000000E+00  6.166613309E-01  6.166613309E-01  0.000000000E+00  0.00000E+00  9.000E+00
       2    -1     0     0   501     0  0.000000000E+00  0.000000000E+00 -2.747054837E+02  2.747054837E+02  0.000000000E+00  0.00000E+00  9.000E+00
      23     2     1     2     0     0 -9.227194606E-02 -1.354650215E+00 -2.623149663E+02  2.634702558E+02  2.460874969E+01  0.00000E+00  9.000E+00
      13     1     3     3     0     0  1.051074963E-01  1.570608386E+00 -2.591495078E+02  2.591543101E+02  1.056583668E-01  0.00000E+00  9.000E+00
     -13     1     3     3     0     0 -1.973794424E-01 -2.925258601E+00 -3.165458440E+00  4.315945708E+00  1.056583668E-01  0.00000E+00  9.000E+00
      21     1     1     2   501   511  9.227194606E-02  1.354650215E+00 -1.177385613E+01  1.185188928E+01  1.685873940E-07  0.00000E+00  9.000E+00
#pdf  -2  2 0.88733462E-04 0.40383594E-01 0.24608750E+02 0.24547434E+01 0.62617590E+00
#rwgt            1           4   1959.8631625658645         54217137    18550055           0
</event>
<event>
      6  10013  3.31628E+03  5.79697E+00 -1.00000E+00  2.27739E-01
       2    -1     0     0   511     0  0.000000000E+00  0.000000000E+00  5.894192088E+02  5.894192088E+02  0.000000000E+00  0.00000E+00  9.000E+00
      -2    -1     0     0     0   501  0.000000000E+00  0.000000000E+00 -4.018667935E+00  4.018667935E+00  0.000000000E+00  0.00000E+00  9.000E+00
      23     2     1     2     0     0  3.215852531E+00 -4.823184397E+00  5.213726691E+02  5.291481172E+02  9.019237807E+01  0.00000E+00  9.000E+00
      13     1     3     3     0     0  1.527194358E+01 -4.624175133E+00  1.286415480E+01  2.049665579E+01  1.056583668E-01  0.00000E+00  9.000E+00
     -13     1     3     3     0     0 -1.205609105E+01 -1.990092639E-01  5.085085143E+02  5.086514614E+02  1.056583668E-01  0.00000E+00  9.000E+00
      21     1     1     2   511   501 -3.215852531E+00  4.823184397E+00  6.402787172E+01  6.428975947E+01  9.536743164E-07  0.00000E+00  9.000E+00
#pdf   2 -2 0.80642892E-01 0.59687979E-03 0.90192378E+02 0.61575327E+00 0.17676197E+01
#rwgt            1           7   1315.8606776194506         54217137    18550240           0
</event>
<event>
      6  10013  3.31628E+03  1.16096E+01 -1.00000E+00  1.88497E-01
      21    -1     0     0   511   501  0.000000000E+00  0.000000000E+00  3.748937652E+01  3.748937652E+01  0.000000000E+00  0.00000E+00  9.000E+00
       2    -1     0     0   501     0  0.000000000E+00  0.000000000E+00 -1.065102299E+02  1.065102299E+02  0.000000000E+00  0.00000E+00  9.000E+00
      23     2     1     2     0     0  1.746297647E+00  1.147750494E+01 -8.770505514E+01  1.220022869E+02  8.400951510E+01  0.00000E+00  9.000E+00
      13     1     3     3     0     0 -2.013735737E+00  4.345130489E+01 -2.180218752E+01  4.865611547E+01  1.056583668E-01  0.00000E+00  9.000E+00
     -13     1     3     3     0     0  3.760033384E+00 -3.197379995E+01 -6.590286762E+01  7.334617139E+01  1.056583668E-01  0.00000E+00  9.000E+00
       2     1     1     2   511     0 -1.746297647E+00 -1.147750494E+01  1.868420172E+01  2.199731959E+01  0.000000000E+00  0.00000E+00  9.000E+00
#pdf  -2  2 0.26134118E-02 0.15979471E-01 0.84009515E+02 0.96613396E+00 0.69828010E+00
#rwgt            1           4   789.75398355702600         54217137    18550340           0
</event>
<event>
      6  10013  3.31628E+03  2.14249E+00 -1.00000E+00  3.49479E-01
       2    -1     0     0   511     0  0.000000000E+00  0.000000000E+00  8.714171626E+02  8.714171626E+02  0.000000000E+00  0.00000E+00  9.000E+00
      -2    -1     0     0     0   501  0.000000000E+00  0.000000000E+00 -4.142277486E+00  4.142277486E+00  0.000000000E+00  0.00000E+00  9.000E+00
      23     2     1     2     0     0  1.563822353E+00 -1.464490972E+00  5.578899639E+02  5.661671006E+02  9.643331207E+01  0.00000E+00  9.000E+00
      13     1     3     3     0     0  2.521593305E+01 -8.363089705E+00  5.217611571E+02  5.224370783E+02  1.056583668E-01  0.00000E+00  9.000E+00
     -13     1     3     3     0     0 -2.365211069E+01  6.898598733E+00  3.612880682E+01  4.373002230E+01  1.056583668E-01  0.00000E+00  9.000E+00
      21     1     1     2   511   501 -1.563822353E+00  1.464490972E+00  3.093849212E+02  3.093923395E+02  5.394796609E-06  0.00000E+00  9.000E+00
#pdf   2 -2 0.86444596E-01 0.63654574E-03 0.96433312E+02 0.61129364E+00 0.17450915E+01
#rwgt            1           7   570.90408578807319         54217137    18550432           0
</event>
<event>
      6  10013  3.31628E+03  6.18515E+00 -1.00000E+00  2.23364E-01
       2    -1     0     0   501     0  0.000000000E+00  0.000000000E+00  5.967661591E+01  5.967661591E+01  0.000000000E+00  0.00000E+00  9.000E+00
      -2    -1     0     0     0   511  0.000000000E+00  0.000000000E+00 -4.166233307E+01  4.166233307E+01  0.000000000E+00  0.00000E+00  9.000E+00
      23     2     1     2     0     0  5.938420212E+00  1.729509149E+00  2.068447033E+01  9.460204035E+01  9.210560618E+01  0.00000E+00  9.000E+00
      13     1     3     3     0     0  2.407473955E+01  3.166486452E+01  3.847374510E+01  5.533983154E+01  1.056583668E-01  0.00000E+00  9.000E+00
     -13     1     3     3     0     0 -1.813631934E+01 -2.993535537E+01 -1.778927476E+01  3.926220881E+01  1.056583668E-01  0.00000E+00  9.000E+00
      21     1     1     2   501   511 -5.938420212E+00 -1.729509149E+00 -2.670187490E+00  6.736908619E+00  2.980232239E-08  0.00000E+00  9.000E+00
#pdf   2 -2 0.88482650E-02 0.56731897E-02 0.92105606E+02 0.78385474E+00 0.69082399E+00
#rwgt            1           7   613.81307071887886         54217137    18550646           0
</event>
<event>
      6  10013  3.31628E+03  8.52757E+00 -1.00000E+00  2.04045E-01
      21    -1     0     0   501   511  0.000000000E+00  0.000000000E+00  4.244578887E+01  4.244578887E+01  0.000000000E+00  0.00000E+00  9.000E+00
      -5    -1     0     0     0   501  0.000000000E+00  0.000000000E+00 -1.483161761E+02  1.483161761E+02  0.000000000E+00  0.00000E+00  9.000E+00
      23     2     1     2     0     0 -5.098906469E+00 -6.835245154E+00 -1.330982638E+02  1.622299358E+02  9.236170647E+01  0.00000E+00  9.000E+00
      13     1     3     3     0     0  7.934110888E+00  8.373023836E-01  1.305286234E+01  1.529835186E+01  1.056583668E-01  0.00000E+00  9.000E+00
     -13     1     3     3     0     0 -1.303301736E+01 -7.672547538E+00 -1.461511261E+02  1.469315839E+02  1.056583668E-01  0.00000E+00  9.000E+00
      -5     1     1     2     0   511  5.098906469E+00  6.835245154E+00  2.722787659E+01  2.853202914E+01  0.000000000E+00  0.00000E+00  9.000E+00
#pdf   5 -5 0.22314073E-02 0.22621341E-01 0.92361706E+02 0.56559482E+00 0.11318790E+00
#rwgt            1          10   94.805862159379160         54217137    18550711           0
</event>
<event>
      5  10013  3.31628E+03  8.94427E-01 -1.00000E+00  7.21282E-01
       2    -1     0     0   501     0  0.000000000E+00  0.000000000E+00  3.223069248E-01  3.223069248E-01  0.000000000E+00  0.00000E+00  9.000E+00
      -2    -1     0     0     0   501  0.000000000E+00  0.000000000E+00 -4.119242005E+02  4.119242005E+02  0.000000000E+00  0.00000E+00  9.000E+00
      23     2     1     2     0     0  0.000000000E+00  0.000000000E+00 -4.116018936E+02  4.122465075E+02  2.304482782E+01  0.00000E+00  9.000E+00
      13     1     3     3     0     0  8.136441370E-01 -4.807009247E+00 -3.925540752E+02  3.925843635E+02  1.056583668E-01  0.00000E+00  9.000E+00
     -13     1     3     3     0     0 -8.136441370E-01  4.807009247E+00 -1.904781838E+01  1.966214392E+01  1.056583668E-01  0.00000E+00  9.000E+00
#pdf   2 -2 0.49585681E-04 0.63372954E-01 0.23044828E+02 0.28751059E+01 0.14828328E+00
#rwgt            1           7   484.85011891297120         54217137    18551244           0
</event>
<event>
      6  10013  3.31628E+03  1.95570E+01 -1.00000E+00  1.67134E-01
      21    -1     0     0   501   511  0.000000000E+00  0.000000000E+00  3.243661235E+02  3.243661235E+02  0.000000000E+00  0.00000E+00  9.000E+00
      -2    -1     0     0     0   501  0.000000000E+00  0.000000000E+00 -4.112264815E+00  4.112264815E+00  0.000000000E+00  0.00000E+00  9.000E+00
      23     2     1     2     0     0 -1.888793403E+01 -5.071712314E+00  1.089852287E+02  1.163064997E+02  3.559417750E+01  0.00000E+00  9.000E+00
      13     1     3     3     0     0 -5.299844552E+00  4.721812948E+00  1.166129989E+00  7.194087339E+00  1.056583668E-01  0.00000E+00  9.000E+00
     -13     1     3     3     0     0 -1.358808948E+01 -9.793525262E+00  1.078190987E+02  1.091124123E+02  1.056583668E-01  0.00000E+00  9.000E+00
      -2     1     1     2     0   511  1.888793403E+01  5.071712314E+00  2.112686300E+02  2.121718887E+02  0.000000000E+00  0.00000E+00  9.000E+00
#pdf   2 -2 0.15188504E-01 0.49357849E-03 0.35594177E+02 0.66972806E+00 0.15608608E+01
#rwgt            1           7   1305.2427547201753         54217137    18551498           0
</event>
<event>
      6  10013  3.31628E+03  4.49633E+00 -1.00000E+00  2.51950E-01
       2    -1     0     0   501     0  0.000000000E+00  0.000000000E+00  8.898933259E+02  8.898933259E+02  0.000000000E+00  0.00000E+00  9.000E+00
      -2    -1     0     0     0   511  0.000000000E+00  0.000000000E+00 -8.418397612E-01  8.418397612E-01  0.000000000E+00  0.00000E+00  9.000E+00
      23     2     1     2     0     0  1.633265612E+00 -4.189204072E+00  8.727764468E+02  8.738504420E+02  4.307727848E+01  0.00000E+00  9.000E+00
      13     1     3     3     0     0  9.198098396E+00 -2.151966029E+01  5.733791928E+02  5.738566116E+02  1.056583668E-01  0.00000E+00  9.000E+00
     -13     1     3     3     0     0 -7.564832784E+00  1.733045622E+01  2.993972540E+02  2.999938304E+02  1.056583668E-01  0.00000E+00  9.000E+00
      21     1     1     2   501   511 -1.633265612E+00  4.189204072E+00  1.627503929E+01  1.688472361E+01  8.259061849E-07  0.00000E+00  9.000E+00
#pdf   2 -2 0.13362995E+00 0.82168622E-04 0.43077278E+02 0.59079865E+00 0.29933211E+01
#rwgt            1           7   2516.1875287467738         54217137    18551559           0
</event>
<event>
      6  10013  3.31628E+03  3.47893E+01 -1.00000E+00  1.48669E-01
      21    -1     0     0   501   511  0.000000000E+00  0.000000000E+00  1.295914939E+02  1.295914939E+02  0.000000000E+00  0.00000E+00  9.000E+00
      -2    -1     0     0     0   501  0.000000000E+00  0.000000000E+00 -3.631011078E+01  3.631011078E+01  0.000000000E+00  0.00000E+00  9.000E+00
      23     2     1     2     0     0 -2.447384113E+01 -2.472494727E+01  5.217650448E+01  1.120508576E+02  9.285857604E+01  0.00000E+00  9.000E+00
      13     1     3     3     0     0  2.336925324E+01 -1.468059770E+01 -1.305812333E+01  3.053142143E+01  1.056583668E-01  0.00000E+00  9.000E+00
     -13     1     3     3     0     0 -4.784309438E+01 -1.004434957E+01  6.523462781E+01  8.151943613E+01  1.056583668E-01  0.00000E+00  9.000E+00
      -2     1     1     2     0   511  2.447384113E+01  2.472494727E+01  4.110487868E+01  5.385074715E+01  0.000000000E+00  0.00000E+00  9.000E+00
#pdf   2 -2 0.11829898E-01 0.43129689E-02 0.92858576E+02 0.73852624E+00 0.78473555E+00
#rwgt            1           7   443.78784867933018         54217137    18551667           0
</event>
<event>
      6  10013  3.31628E+03  1.46761E+01 -1.00000E+00  1.78233E-01
      21    -1     0     0   501   511  0.000000000E+00  0.000000000E+00  4.860093334E+01  4.860093334E+01  0.000000000E+00  0.00000E+00  9.000E+00
      -4    -1     0     0     0   501  0.000000000E+00  0.000000000E+00 -1.487301084E+01  1.487301084E+01  0.000000000E+00  0.00000E+00  9.000E+00
      23     2     1     2     0     0 -4.567843940E+00 -1.394711562E+01  3.584507229E+01  4.864594514E+01  2.943079234E+01  0.00000E+00  9.000E+00
      13     1     3     3     0     0  1.084755251E+01 -1.250521353E+01  2.398034433E+01  2.913962660E+01  1.056583668E-01  0.00000E+00  9.000E+00
     -13     1     3     3     0     0 -1.541539645E+01 -1.441902096E+00  1.186472797E+01  1.950631853E+01  1.056583668E-01  0.00000E+00  9.000E+00
      -4     1     1     2     0   511  4.567843940E+00  1.394711562E+01 -2.117149787E+00  1.482799905E+01  0.000000000E+00  0.00000E+00  9.000E+00
#pdf   4 -4 0.58162636E-02 0.88119723E-03 0.29430792E+02 0.40045617E+00 0.93592092E+00
#rwgt            1           9   274.81308003054761         54217137    18551712           0
</event>
<event>
      6  10013  3.31628E+03  2.27948E+00 -1.00000E+00  3.38303E-01
      -2    -1     0     0     0   511  0.000000000E+00  0.000000000E+00  1.135229231E+01  1.135229231E+01  0.000000000E+00  0.00000E+00  9.000E+00
       2    -1     0     0   501     0  0.000000000E+00  0.000000000E+00 -6.926017136E+01  6.926017136E+01  0.000000000E+00  0.00000E+00  9.000E+00
      23     2     1     2     0     0 -1.314099727E+00  1.862575588E+00 -6.144447440E+01  7.640490469E+01  4.535515385E+01  0.00000E+00  9.000E+00
      13     1     3     3     0     0  9.381513284E+00  2.063161928E+01 -3.994400832E+01  4.592615235E+01  1.056583668E-01  0.00000E+00  9.000E+00
     -13     1     3     3     0     0 -1.069561301E+01 -1.876904369E+01 -2.150046608E+01  3.047875234E+01  1.056583668E-01  0.00000E+00  9.000E+00
      21     1     1     2   501   511  1.314099727E+00 -1.862575588E+00  3.536595351E+00  4.207558983E+00  8.429369702E-08  0.00000E+00  9.000E+00
#pdf  -2  2 0.11493517E-02 0.10590432E-01 0.45355154E+02 0.12143981E+01 0.71780999E+00
#rwgt            1           4   638.56743365057650         54217137    18551806           0
</event>
<event>
      6  10013  3.31628E+03  1.25625E+00 -1.00000E+00  5.14837E-01
       2    -1     0     0   501     0  0.000000000E+00  0.000000000E+00  1.107548189E+03  1.107548189E+03  0.000000000E+00  0.00000E+00  9.000E+00
      -2    -1     0     0     0   511  0.000000000E+00  0.000000000E+00 -1.960192130E+00  1.960192130E+00  0.000000000E+00  0.00000E+00  9.000E+00
      23     2     1     2     0     0  7.225123922E-01 -1.027682691E+00  1.094727262E+03  1.098575234E+03  9.185960625E+01  0.00000E+00  9.000E+00
      13     1     3     3     0     0  3.402649203E+00 -2.470191355E+01  8.537768215E+01  8.894449015E+01  1.056583668E-01  0.00000E+00  9.000E+00
     -13     1     3     3     0     0 -2.680136811E+00  2.367423086E+01  1.009349580E+03  1.009630744E+03  1.056583668E-01  0.00000E+00  9.000E+00
      21     1     1     2   501   511 -7.225123922E-01  1.027682691E+00  1.086073419E+01  1.093314698E+01  2.064765462E-07  0.00000E+00  9.000E+00
#pdf   2 -2 0.16869980E+00 0.29597013E-03 0.91859606E+02 0.53178963E+00 0.23087385E+01
#rwgt            1           7   1208.7720331148325         54217137    18552066           0
</event>
<event>
      6  10013  3.31628E+03  5.74938E+00 -1.00000E+00  2.28308E-01
      21    -1     0     0   511   501  0.000000000E+00  0.000000000E+00  2.428764821E-01  2.428764821E-01  0.000000000E+00  0.00000E+00  9.000E+00
       2    -1     0     0   501     0  0.000000000E+00  0.000000000E+00 -1.226659906E+03  1.226659906E+03  0.000000000E+00  0.00000E+00  9.000E+00
      23     2     1     2     0     0  5.711902808E+00  6.554020756E-01 -4.967803932E+02  4.972434946E+02  2.067071441E+01  0.00000E+00  9.000E+00
      13     1     3     3     0     0  3.527796801E+00  5.779032319E+00 -4.594350385E+02  4.594849381E+02  1.056583668E-01  0.00000E+00  9.000E+00
     -13     1     3     3     0     0  2.184106007E+00 -5.123630243E+00 -3.734535473E+01  3.775855651E+01  1.056583668E-01  0.00000E+00  9.000E+00
       2     1     1     2   511     0 -5.711902808E+00 -6.554020756E-01 -7.296366365E+02  7.296592881E+02  0.000000000E+00  0.00000E+00  9.000E+00
#pdf  -2  2 0.34320354E-04 0.73666920E-01 0.20670714E+02 0.30674259E+01 0.62912127E+00
#rwgt            1           4   1888.9163420830046         54217137    18552324           0
</event>
<event>
      6  10013  3.31628E+03  4.24458E+01 -1.00000E+00  1.43229E-01
       2    -1     0     0   501     0  0.000000000E+00  0.000000000E+00  1.103514723E+02  1.103514723E+02  0.000000000E+00  0.00000E+00  9.000E+00
      21    -1     0     0   511   501  0.000000000E+00  0.000000000E+00 -4.783792568E+01  4.783792568E+01  0.000000000E+00  0.00000E+00  9.000E+00
      23     2     1     2     0     0  7.725406923E+00 -4.173684833E+01  4.242458065E+01  1.112297028E+02  9.365124301E+01  0.00000E+00  9.000E+00
      13     1     3     3     0     0  8.314392785E+00 -2.419701827E+01 -2.842188665E+01  3.824185698E+01  1.056583668E-01  0.00000E+00  9.000E+00
     -13     1     3     3     0     0 -5.889858624E-01 -1.753983006E+01  7.084646730E+01  7.298784581E+01  1.056583668E-01  0.00000E+00  9.000E+00
       2     1     1     2   511     0 -7.725406923E+00  4.173684833E+01  2.008896599E+01  4.695969522E+01  0.000000000E+00  0.00000E+00  9.000E+00
#pdf   2 -2 0.10765449E-01 0.48206793E-02 0.93651243E+02 0.75267828E+00 0.74651147E+00
#rwgt            1           7   349.35154190377301         54217137    18552375           0
</event>
<event>
      6  10013  3.31628E+03  5.74268E+00 -1.00000E+00  2.28389E-01
      -3    -1     0     0     0   501  0.000000000E+00  0.000000000E+00  6.309435053E+00  6.309435053E+00  0.000000000E+00  0.00000E+00  9.000E+00
       3    -1     0     0   511     0  0.000000000E+00  0.000000000E+00 -1.047453269E+03  1.047453269E+03  0.000000000E+00  0.00000E+00  9.000E+00
      23     2     1     2     0     0 -4.050806880E+00  4.070546148E+00 -3.175842102E+02  3.301802916E+02  9.014608178E+01  0.00000E+00  9.000E+00
      13     1     3     3     0     0 -1.532053304E+00  3.104538844E+01 -2.894793402E+02  2.911433718E+02  1.056583668E-01  0.00000E+00  9.000E+00
     -13     1     3     3     0     0 -2.518753575E+00 -2.697484230E+01 -2.810486992E+01  3.903691988E+01  1.056583668E-01  0.00000E+00  9.000E+00
      21     1     1     2   511   501  4.050806880E+00 -4.070546148E+00 -7.235596242E+02  7.235824128E+02  1.321449896E-05  0.00000E+00  9.000E+00
#pdf  -3  3 0.96696924E-03 0.49727239E-01 0.90146082E+02 0.14249866E+01 0.15111356E+00
#rwgt            1           3   277.23290526903708         54217137    18552414           0
</event>
<event>
      6  10013  3.31628E+03  5.95929E+00 -1.00000E+00  2.25853E-01
       4    -1     0     0   511     0  0.000000000E+00  0.000000000E+00  6.848188000E+01  6.848188000E+01  0.000000000E+00  0.00000E+00  9.000E+00
      -4    -1     0     0     0   501  0.000000000E+00  0.000000000E+00 -4.097846086E+00  4.097846086E+00  0.000000000E+00  0.00000E+00  9.000E+00
      23     2     1     2     0     0  3.200956933E+00  5.026632711E+00  3.677272389E+01  4.433264477E+01  2.403408014E+01  0.00000E+00  9.000E+00
      13     1     3     3     0     0  6.721565016E+00  4.548259560E+00  7.678306867E-01  8.152719114E+00  1.056583668E-01  0.00000E+00  9.000E+00
     -13     1     3     3     0     0 -3.520608083E+00  4.783731503E-01  3.600489321E+01  3.617992566E+01  1.056583668E-01  0.00000E+00  9.000E+00
      21     1     1     2   511   501 -3.200956933E+00 -5.026632711E+00  2.761131002E+01  2.824708131E+01  4.768371582E-07  0.00000E+00  9.000E+00
#pdf   4 -4 0.60555045E-02 0.56444025E-03 0.24034080E+02 0.37420200E+00 0.10368611E+01
#rwgt            1           9   331.54077285023351         54217137    18552486           0
</event>
<event>
      6  10013  3.31628E+03  1.26652E+01 -1.00000E+00  1.84546E-01
       2    -1     0     0   501     0  0.000000000E+00  0.000000000E+00  9.683977193E+02  9.683977193E+02  0.000000000E+00  0.00000E+00  9.000E+00
      21    -1     0     0   511   501  0.000000000E+00  0.000000000E+00 -1.196710334E+01  1.196710334E+01  0.000000000E+00  0.00000E+00  9.000E+00
      23     2     1     2     0     0 -1.196549064E+01  4.151489492E+00  9.621385926E+02  9.664727807E+02  9.054588132E+01  0.00000E+00  9.000E+00
      13     1     3     3     0     0 -4.380473212E+01 -2.215303712E+01  4.491794716E+02  4.518537600E+02  1.056583668E-01  0.00000E+00  9.000E+00
     -13     1     3     3     0     0  3.183924148E+01  2.630452661E+01  5.129591210E+02  5.146190207E+02  1.056583668E-01  0.00000E+00  9.000E+00
       2     1     1     2   511     0  1.196549064E+01 -4.151489492E+00 -5.707976657E+00  1.389204193E+01  0.000000000E+00  0.00000E+00  9.000E+00
#pdf   2 -2 0.14692437E+00 0.33018464E-03 0.90545881E+02 0.55801864E+00 0.22106588E+01
#rwgt            1           7   1453.3651379527832         54217137    18552598           0
</event>
<event>
      6  10013  3.31628E+03  2.20317E+01 -1.00000E+00  1.62935E-01
       1    -1     0     0   501     0  0.000000000E+00  0.000000000E+00  3.139883964E+01  3.139883964E+01  0.000000000E+00  0.00000E+00  9.000E+00
      -1    -1     0     0     0   511  0.000000000E+00  0.000000000E+00 -9.748674600E+01  9.748674600E+01  0.000000000E+00  0.00000E+00  9.000E+00
      23     2     1     2     0     0  1.330196243E+01 -1.756288802E+01 -2.294784746E+01  8.044529329E+01  7.388805228E+01  0.00000E+00  9.000E+00
      13     1     3     3     0     0  3.117428829E+01 -3.589976845E+01 -2.387176936E+00  4.760608577E+01  1.056583668E-01  0.00000E+00  9.000E+00
     -13     1     3     3     0     0 -1.787232585E+01  1.833688043E+01 -2.056067052E+01  3.283920753E+01  1.056583668E-01  0.00000E+00  9.000E+00
      21     1     1     2   501   511 -1.330196243E+01  1.756288802E+01 -4.314005890E+01  4.844029234E+01  4.768371582E-07  0.00000E+00  9.000E+00
#pdf   1 -1 0.42384716E-02 0.76217106E-02 0.73888052E+02 0.87484926E+00 0.60476432E+00
#rwgt            1           6   242.25515788547563         54217137    18552665           0
</event>
<event>
      6  10013  3.31628E+03  3.76798E+00 -1.00000E+00  2.69625E-01
      21    -1     0     0   501   511  0.000000000E+00  0.000000000E+00  9.864027426E+01  9.864027426E+01  0.000000000E+00  0.00000E+00  9.000E+00
      -2    -1     0     0     0   501  0.000000000E+00  0.000000000E+00 -2.828699278E+01  2.828699278E+01  0.000000000E+00  0.00000E+00  9.000E+00
      23     2     1     2     0     0 -3.698871500E+00 -7.183632071E-01  4.368402420E+01  9.999314407E+01  8.986733107E+01  0.00000E+00  9.000E+00
      13     1     3     3     0     0 -2.932283413E+00 -3.856076757E+01  4.828677040E+01  6.186399955E+01  1.056583668E-01  0.00000E+00  9.000E+00
     -13     1     3     3     0     0 -7.665880868E-01  3.784240436E+01 -4.602746197E+00  3.812914451E+01  1.056583668E-01  0.00000E+00  9.000E+00
      -2     1     1     2     0   511  3.698871500E+00  7.183632071E-01  2.666925728E+01  2.693412296E+01  0.000000000E+00  0.00000E+00  9.000E+00
#pdf   2 -2 0.11042388E-01 0.43276684E-02 0.89867331E+02 0.74697932E+00 0.78076514E+00
#rwgt            1           7   569.89752871501651         54217137    18552707           0
</event>
<event>
      6  10013  3.31628E+03  1.58733E+01 -1.00000E+00  1.75053E-01
      21    -1     0     0   511   501  0.000000000E+00  0.000000000E+00  1.307684017E+01  1.307684017E+01  0.000000000E+00  0.00000E+00  9.000E+00
       1    -1     0     0   501     0  0.000000000E+00  0.000000000E+00 -1.624926648E+03  1.624926648E+03  0.000000000E+00  0.00000E+00  9.000E+00
      23     2     1     2     0     0  1.501864731E+01  5.138152654E+00 -1.618320635E+03  1.620861960E+03  8.933003228E+01  0.00000E+00  9.000E+00
      13     1     3     3     0     0  5.034351252E+01 -7.695672890E+00 -1.101381261E+03  1.102558110E+03  1.056583668E-01  0.00000E+00  9.000E+00
     -13     1     3     3     0     0 -3.532486521E+01  1.283382554E+01 -5.169393741E+02  5.183038499E+02  1.056583668E-01  0.00000E+00  9.000E+00
       1     1     1     2   511     0 -1.501864731E+01 -5.138152654E+00  6.470827405E+00  1.714152814E+01  0.000000000E+00  0.00000E+00  9.000E+00
#pdf  -1  1 0.19247154E-03 0.24532498E+00 0.89330032E+02 0.26901708E+01 0.18199990E+00
#rwgt            1           5   809.56469396178977         54217137    18552818           0
</event>
<event>
      6  10013  3.31628E+03  1.40643E+01 -1.00000E+00  1.80011E-01
      -4    -1     0     0     0   501  0.000000000E+00  0.000000000E+00  9.721419554E+00  9.721419554E+00  0.000000000E+00  0.00000E+00  9.000E+00
      21    -1     0     0   501   511  0.000000000E+00  0.000000000E+00 -2.873414256E+02  2.873414256E+02  0.000000000E+00  0.00000E+00  9.000E+00
      23     2     1     2     0     0  5.671031838E+00 -1.287028104E+01 -2.350804340E+02  2.522586051E+02  9.040900766E+01  0.00000E+00  9.000E+00
      13     1     3     3     0     0 -1.861837517E+01 -1.428986937E+01 -2.245051772E+02  2.257286646E+02  1.056583668E-01  0.00000E+00  9.000E+00
     -13     1     3     3     0     0  2.428940701E+01  1.419588330E+00 -1.057525679E+01  2.652994052E+01  1.056583668E-01  0.00000E+00  9.000E+00
      -4     1     1     2     0   511 -5.671031838E+00  1.287028104E+01 -4.253957204E+01  4.480424004E+01  0.000000000E+00  0.00000E+00  9.000E+00
#pdf  -4  4 0.13056934E-02 0.37042091E-01 0.90409008E+02 0.10437312E+01 0.11827692E+00
#rwgt            1           2   135.71928649573238         54217137    18552859           0
</event>
<event>
      6  10013  3.31628E+03  8.11354E+00 -1.00000E+00  2.06808E-01
       2    -1     0     0   501     0  0.000000000E+00  0.000000000E+00  4.970227368E+02  4.970227368E+02  0.000000000E+00  0.00000E+00  9.000E+00
      21    -1     0     0   511   501  0.000000000E+00  0.000000000E+00 -5.469003925E+00  5.469003925E+00  0.000000000E+00  0.00000E+00  9.000E+00
      23     2     1     2     0     0 -7.569124484E+00  2.921967196E+00  4.917146447E+02  4.943766048E+02  5.058760749E+01  0.00000E+00  9.000E+00
      13     1     3     3     0     0 -2.031619984E+01  2.053973011E+01  3.170315237E+02  3.183451377E+02  1.056583668E-01  0.00000E+00  9.000E+00
     -13     1     3     3     0     0  1.274707536E+01 -1.761776291E+01  1.746831210E+02  1.760314671E+02  1.056583668E-01  0.00000E+00  9.000E+00
       2     1     1     2   511     0  7.569124484E+00 -2.921967196E+00 -1.609118599E-01  8.115135882E+00  0.000000000E+00  0.00000E+00  9.000E+00
#pdf   2 -2 0.74895991E-01 0.20218224E-03 0.50587607E+02 0.62370150E+00 0.23124240E+01
#rwgt            1           7   2313.6919924729768         54217137    18552961           0
</event>
<event>
      6  10013  3.31628E+03  1.67174E+01 -1.00000E+00  1.73015E-01
      -1    -1     0     0     0   511  0.000000000E+00  0.000000000E+00  8.247520820E+00  8.247520820E+00  0.000000000E+00  0.00000E+00  9.000E+00
       1    -1     0     0   501     0  0.000000000E+00  0.000000000E+00 -4.535705871E+02  4.535705871E+02  0.000000000E+00  0.00000E+00  9.000E+00
      23     2     1     2     0     0 -1.028563681E+01  1.317863501E+01 -4.263015298E+02  4.364944116E+02  9.227624998E+01  0.00000E+00  9.000E+00
      13     1     3     3     0     0 -4.912923750E+01 -4.777955871E-01 -2.891931779E+02  2.933370341E+02  1.056583668E-01  0.00000E+00  9.000E+00
     -13     1     3     3     0     0  3.884360069E+01  1.365643060E+01 -1.371083519E+02  1.431573775E+02  1.056583668E-01  0.00000E+00  9.000E+00
      21     1     1     2   501   511  1.028563681E+01 -1.317863501E+01 -1.902153652E+01  2.532369635E+01  6.307962682E-07  0.00000E+00  9.000E+00
#pdf  -1  1 0.77150906E-03 0.65305858E-01 0.92276250E+02 0.16143047E+01 0.41511693E+00
#rwgt            1           5   1065.8992111957702         54217137    18553006           0
</event>
<event>
      6  10013  3.31628E+03  8.34898E+00 -1.00000E+00  2.05211E-01
      21    -1     0     0   501   511  0.000000000E+00  0.000000000E+00  2.940742969E+01  2.940742969E+01  0.000000000E+00  0.00000E+00  9.000E+00
      -2    -1     0     0     0   501  0.000000000E+00  0.000000000E+00 -1.652421647E+02  1.652421647E+02  0.000000000E+00  0.00000E+00  9.000E+00
      23     2     1     2     0     0  4.796956045E+00 -6.833349053E+00 -1.513908135E+02  1.769946510E+02  9.131386873E+01  0.00000E+00  9.000E+00
      13     1     3     3     0     0  4.340896651E-01  9.728756513E+00 -1.582466344E+02  1.585460362E+02  1.056583668E-01  0.00000E+00  9.000E+00
     -13     1     3     3     0     0  4.362866380E+00 -1.656210557E+01  6.855820890E+00  1.844861479E+01  1.056583668E-01  0.00000E+00  9.000E+00
      -2     1     1     2     0   511 -4.796956045E+00  6.833349053E+00  1.555607852E+01  1.765494337E+01  0.000000000E+00  0.00000E+00  9.000E+00
#pdf   2 -2 0.19613448E-02 0.25155492E-01 0.91313869E+02 0.12095554E+01 0.30554922E+00
#rwgt            1           7   310.85864592499127         54217137    18553053           0
</event>
<event>
      6  10013  3.31628E+03  2.27463E+01 -1.00000E+00  1.61847E-01
      21    -1     0     0   501   511  0.000000000E+00  0.000000000E+00  2.286824580E+02  2.286824580E+02  0.000000000E+00  0.00000E+00  9.000E+00
      -4    -1     0     0     0   501  0.000000000E+00  0.000000000E+00 -1.567568163E+01  1.567568163E+01  0.000000000E+00  0.00000E+00  9.000E+00
      23     2     1     2     0     0 -1.954375226E+01  1.163768831E+01  1.932886558E+02  2.142550115E+02  8.959526476E+01  0.00000E+00  9.000E+00
      13     1     3     3     0     0 -4.665134722E+01  8.538145821E+00  1.752325889E+02  1.815371023E+02  1.056583668E-01  0.00000E+00  9.000E+00
     -13     1     3     3     0     0  2.710759496E+01  3.099542491E+00  1.805606684E+01  3.271790919E+01  1.056583668E-01  0.00000E+00  9.000E+00
      -4     1     1     2     0   511  1.954375226E+01 -1.163768831E+01  1.971812057E+01  3.010312808E+01  0.000000000E+00  0.00000E+00  9.000E+00
#pdf   4 -4 0.30385564E-01 0.15632056E-02 0.89595265E+02 0.14416654E+00 0.95940057E+00
#rwgt            1           9   122.17349528726258         54217137    18553131           0
</event>
<event>
      6  10013  3.31628E+03  1.78393E+01 -1.00000E+00  1.70529E-01
       4    -1     0     0   501     0  0.000000000E+00  0.000000000E+00  1.718128880E+01  1.718128880E+01  0.000000000E+00  0.00000E+00  9.000E+00
      -4    -1     0     0     0   511  0.000000000E+00  0.000000000E+00 -1.578486931E+02  1.578486931E+02  0.000000000E+00  0.00000E+00  9.000E+00
      23     2     1     2     0     0  1.065844712E+01 -1.430513164E+01 -8.991294020E+01  1.212317021E+02  7.933819689E+01  0.00000E+00  9.000E+00
      13     1     3     3     0     0  2.276630905E+00 -1.726649382E+00 -1.018998688E+02  1.019399764E+02  1.056583668E-01  0.00000E+00  9.000E+00
     -13     1     3     3     0     0  8.381816219E+00 -1.257848226E+01  1.198692858E+01  1.929172568E+01  1.056583668E-01  0.00000E+00  9.000E+00
      21     1     1     2   501   511 -1.065844712E+01  1.430513164E+01 -5.075446408E+01  5.379827981E+01  1.168007728E-06  0.00000E+00  9.000E+00
#pdf   4 -4 0.23504512E-02 0.15846258E-01 0.79338197E+02 0.77279093E+00 0.24830180E+00
#rwgt            1           9   384.93166180159164         54217137    18553182           0
</event>
<event>
      6  10013  3.31628E+03  6.59730E+00 -1.00000E+00  2.19182E-01
      21    -1     0     0   511   501  0.000000000E+00  0.000000000E+00  2.147945837E+00  2.147945837E+00  0.000000000E+00  0.00000E+00  9.000E+00
       1    -1     0     0   501     0  0.000000000E+00  0.000000000E+00 -2.285739676E+03  2.285739676E+03  0.000000000E+00  0.00000E+00  9.000E+00
      23     2     1     2     0     0 -2.640588169E+00 -6.045802225E+00 -2.274728675E+03  2.276838723E+03  9.777780042E+01  0.00000E+00  9.000E+00
      13     1     3     3     0     0  1.081574871E+01  3.522651255E+01 -4.232219270E+02  4.248231377E+02  1.056583668E-01  0.00000E+00  9.000E+00
     -13     1     3     3     0     0 -1.345633688E+01 -4.127231477E+01 -1.851506748E+03  1.852015585E+03  1.056583668E-01  0.00000E+00  9.000E+00
       1     1     1     2   511     0  2.640588169E+00  6.045802225E+00 -8.863054518E+00  1.104889885E+01  0.000000000E+00  0.00000E+00  9.000E+00
#pdf  -1  1 0.16194313E-03 0.34932631E+00 0.97777800E+02 0.29197367E+01 0.94271914E-01
#rwgt            1           5   385.84756212565924         54217137    18553257           0
</event>
<event>
      6  10013  3.31628E+03  1.24873E+01 -1.00000E+00  1.85177E-01
      -4    -1     0     0     0   501  0.000000000E+00  0.000000000E+00  1.156509716E+01  1.156509716E+01  0.000000000E+00  0.00000E+00  9.000E+00
      21    -1     0     0   501   511  0.000000000E+00  0.000000000E+00 -3.490242697E+02  3.490242697E+02  0.000000000E+00  0.00000E+00  9.000E+00
      23     2     1     2     0     0  7.324613042E+00  1.011344884E+01 -2.624343944E+02  2.845324859E+02  1.092290821E+02  0.00000E+00  9.000E+00
      13     1     3     3     0     0  2.162562813E+01 -1.712858798E+01 -2.497231146E+02  2.512423162E+02  1.056583668E-01  0.00000E+00  9.000E+00
     -13     1     3     3     0     0 -1.430101509E+01  2.724203682E+01 -1.271127980E+01  3.329016972E+01  1.056583668E-01  0.00000E+00  9.000E+00
      -4     1     1     2     0   511 -7.324613042E+00 -1.011344884E+01 -7.502477820E+01  7.605688100E+01  0.000000000E+00  0.00000E+00  9.000E+00
#pdf  -4  4 0.16888528E-02 0.41802096E-01 0.10922908E+03 0.95953688E+00 0.10518258E+00
#rwgt            1           2   262.63287111008032         54217137    18553298           0
</event>
<event>
      6  10013  3.31628E+03  4.22798E+00 -1.00000E+00  2.57821E-01
      21    -1     0     0   501   511  0.000000000E+00  0.000000000E+00  7.541865568E+02  7.541865568E+02  0.000000000E+00  0.00000E+00  9.000E+00
      -2    -1     0     0     0   501  0.000000000E+00  0.000000000E+00 -1.517269576E+01  1.517269576E+01  0.000000000E+00  0.00000E+00  9.000E+00
      23     2     1     2     0     0  4.211098088E+00  3.774757859E-01  1.248438091E+02  1.551746479E+02  9.206149499E+01  0.00000E+00  9.000E+00
      13     1     3     3     0     0  2.176305102E+01  1.608453956E+01  1.285174794E+02  1.313358157E+02  1.056583668E-01  0.00000E+00  9.000E+00
     -13     1     3     3     0     0 -1.755195293E+01 -1.570706377E+01 -3.673670363E+00  2.383883222E+01  1.056583668E-01  0.00000E+00  9.000E+00
      -2     1     1     2     0   511 -4.211098088E+00 -3.774757859E-01  6.141700520E+02  6.141846047E+02  0.000000000E+00  0.00000E+00  9.000E+00
#pdf   2 -2 0.21517202E-01 0.23306848E-02 0.92061495E+02 0.67407165E+00 0.10265267E+01
#rwgt            1           7   834.18449010560846         54217137    18553411           0
</event>
<event>
      6  10013  3.31628E+03  2.81377E+00 -1.00000E+00  3.05429E-01
      -1    -1     0     0     0   501  0.000000000E+00  0.000000000E+00  1.196469171E+00  1.196469171E+00  0.000000000E+00  0.00000E+00  9.000E+00
       1    -1     0     0   511     0  0.000000000E+00  0.000000000E+00 -1.908056666E+03  1.908056666E+03  0.000000000E+00  0.00000E+00  9.000E+00
      23     2     1     2     0     0 -2.474350867E-01  2.802871210E+00 -1.773426530E+03  1.775789804E+03  9.154153997E+01  0.00000E+00  9.000E+00
      13     1     3     3     0     0 -6.112742623E+00  4.489804602E+01 -1.164825898E+03  1.165706903E+03  1.056583668E-01  0.00000E+00  9.000E+00
     -13     1     3     3     0     0  5.865307536E+00 -4.209517481E+01 -6.086006325E+02  6.100829014E+02  1.056583668E-01  0.00000E+00  9.000E+00
      21     1     1     2   511   501  2.474350867E-01 -2.802871210E+00 -1.334336667E+02  1.334633310E+02  3.303624740E-06  0.00000E+00  9.000E+00
#pdf  -1  1 0.18170449E-03 0.27288776E+00 0.91541540E+02 0.27612028E+01 0.15493183E+00
#rwgt            1           5   1241.9608032291549         54217137    18553532           0
</event>
<event>
      6  10013  3.31628E+03  2.71969E+00 -1.00000E+00  3.10271E-01
      -2    -1     0     0     0   511  0.000000000E+00  0.000000000E+00  1.153850947E-01  1.153850947E-01  0.000000000E+00  0.00000E+00  9.000E+00
       2    -1     0     0   501     0  0.000000000E+00  0.000000000E+00 -1.757701616E+03  1.757701616E+03  0.000000000E+00  0.00000E+00  9.000E+00
      23     2     1     2     0     0  2.385681150E+00 -1.305849754E+00 -1.720066956E+03  1.720199283E+03  2.116231829E+01  0.00000E+00  9.000E+00
      13     1     3     3     0     0 -4.554894930E+00  7.317082215E+00 -1.098076296E+03  1.098110126E+03  1.056583668E-01  0.00000E+00  9.000E+00
     -13     1     3     3     0     0  6.940576080E+00 -8.622931969E+00 -6.219906601E+02  6.220891568E+02  1.056583668E-01  0.00000E+00  9.000E+00
      21     1     1     2   501   511 -2.385681150E+00  1.305849754E+00 -3.751927472E+01  3.761771781E+01  6.743495762E-07  0.00000E+00  9.000E+00
#pdf  -2  2 0.10095975E-04 0.26247717E+00 0.21162318E+02 0.44082703E+01 0.46357417E+00
#rwgt            1           4   2842.0620369581952         54217137    18553716           0
</event>
<event>
      6  10013  3.31628E+03  5.15045E+00 -1.00000E+00  2.36202E-01
      -2    -1     0     0     0   501  0.000000000E+00  0.000000000E+00  9.620204860E+02  9.620204860E+02  0.000000000E+00  0.00000E+00  9.000E+00
      21    -1     0     0   501   511  0.000000000E+00  0.000000000E+00 -1.494738373E+00  1.494738373E+00  0.000000000E+00  0.00000E+00  9.000E+00
      23     2     1     2     0     0 -4.769297170E+00  1.944453301E+00  9.550521093E+02  9.559993871E+02  4.223469494E+01  0.00000E+00  9.000E+00
      13     1     3     3     0     0 -1.605497086E+01 -1.268034287E+01  6.905298979E+02  6.908329062E+02  1.056583668E-01  0.00000E+00  9.000E+00
     -13     1     3     3     0     0  1.128567369E+01  1.462479617E+01  2.645222114E+02  2.651664809E+02  1.056583668E-01  0.00000E+00  9.000E+00
      -2     1     1     2     0   511  4.769297170E+00 -1.944453301E+00  5.473638306E+00  7.515837308E+00  0.000000000E+00  0.00000E+00  9.000E+00
#pdf  -2  2 0.14592293E+00 0.72331668E-04 0.42234695E+02 0.51623155E-01 0.31175296E+01
#rwgt            1           4   381.15333983039051         54217137    18553855           0
</event>
<event>
      6  10013  3.31628E+03  5.56189E+00 -1.00000E+00  2.30628E-01
       2    -1     0     0   501     0  0.000000000E+00  0.000000000E+00  4.447037946E+01  4.447037946E+01  0.000000000E+00  0.00000E+00  9.000E+00
      21    -1     0     0   511   501  0.000000000E+00  0.000000000E+00 -9.612602864E+00  9.612602864E+00  0.000000000E+00  0.00000E+00  9.000E+00
      23     2     1     2     0     0 -5.470988458E+00  1.001465900E+00  3.701133640E+01  4.811871636E+01  3.024296933E+01  0.00000E+00  9.000E+00
      13     1     3     3     0     0 -7.239763643E+00 -7.664987473E+00  5.051972436E-01  1.055616401E+01  1.056583668E-01  0.00000E+00  9.000E+00
     -13     1     3     3     0     0  1.768775185E+00  8.666453373E+00  3.650613916E+01  3.756255236E+01  1.056583668E-01  0.00000E+00  9.000E+00
       2     1     1     2   511     0  5.470988458E+00 -1.001465900E+00 -2.153559803E+00  5.964265963E+00  0.000000000E+00  0.00000E+00  9.000E+00
#pdf   2 -2 0.64404574E-02 0.84032143E-03 0.30242969E+02 0.75768823E+00 0.12493632E+01
#rwgt            1           7   1106.3967318186535         54217137    18553926           0
</event>
<event>
      6  10013  3.31628E+03  2.07123E+00 -1.00000E+00  3.55920E-01
      -1    -1     0     0     0   501  0.000000000E+00  0.000000000E+00  1.311756387E+03  1.311756387E+03  0.000000000E+00  0.00000E+00  9.000E+00
       1    -1     0     0   511     0  0.000000000E+00  0.000000000E+00 -3.091564473E-01  3.091564473E-01  0.000000000E+00  0.00000E+00  9.000E+00
      23     2     1     2     0     0 -2.031422353E+00 -4.041095229E-01  1.265635401E+03  1.266206916E+03  3.798283779E+01  0.00000E+00  9.000E+00
      13     1     3     3     0     0  8.195706916E+00 -1.576946920E+01  4.290765413E+02  4.294444495E+02  1.056583668E-01  0.00000E+00  9.000E+00
     -13     1     3     3     0     0 -1.022712927E+01  1.536535968E+01  8.365588595E+02  8.367624663E+02  1.056583668E-01  0.00000E+00  9.000E+00
      21     1     1     2   511   501  2.031422353E+00  4.041095229E-01  4.581182976E+01  4.585862762E+01  0.000000000E+00  0.00000E+00  9.000E+00
#pdf  -1  1 0.19446818E+00 0.43897477E-04 0.37982838E+02 0.42166362E-01 0.35322017E+01
#rwgt            1           5   41.607658034076465         54217137    18554041           0
</event>
<event>
      6  10013  3.31628E+03  9.72950E+00 -1.00000E+00  1.97085E-01
       2    -1     0     0   511     0  0.000000000E+00  0.000000000E+00  1.067851934E+02  1.067851934E+02  0.000000000E+00  0.00000E+00  9.000E+00
      -2    -1     0     0     0   501  0.000000000E+00  0.000000000E+00 -2.777867765E+01  2.777867765E+01  0.000000000E+00  0.00000E+00  9.000E+00
      23     2     1     2     0     0 -9.708554426E+00  6.380359216E-01  4.946209232E+01  1.034586291E+02  9.034670024E+01  0.00000E+00  9.000E+00
      13     1     3     3     0     0 -2.362051107E+01  1.630440109E+01 -1.728223806E+01  3.350296933E+01  1.056583668E-01  0.00000E+00  9.000E+00
     -13     1     3     3     0     0  1.391195664E+01 -1.566636517E+01  6.674433038E+01  6.995565979E+01  1.056583668E-01  0.00000E+00  9.000E+00
      21     1     1     2   511   501  9.708554426E+00 -6.380359216E-01  2.954442344E+01  3.110524193E+01  0.000000000E+00  0.00000E+00  9.000E+00
#pdf   2 -2 0.11695510E-01 0.41297021E-02 0.90346700E+02 0.73894597E+00 0.79790892E+00
#rwgt            1           7   604.73432982224142         54217137    18554118           0
</event>
<event>
      6  10013  3.31628E+03  9.50481E+00 -1.00000E+00  1.98282E-01
      -2    -1     0     0     0   501  0.000000000E+00  0.000000000E+00  2.925940488E+00  2.925940488E+00  0.000000000E+00  0.00000E+00  9.000E+00
       2    -1     0     0   511     0  0.000000000E+00  0.000000000E+00 -8.172574822E+02  8.172574822E+02  0.000000000E+00  0.00000E+00  9.000E+00
      23     2     1     2     0     0 -5.918853845E+00 -7.436972372E+00 -7.033880699E+02  7.088335447E+02  8.717726673E+01  0.00000E+00  9.000E+00
      13     1     3     3     0     0  8.421537028E+00 -1.662029804E+01 -3.057501625E+01  3.580501886E+01  1.056583668E-01  0.00000E+00  9.000E+00
     -13     1     3     3     0     0 -1.434039087E+01  9.183325673E+00 -6.728130537E+02  6.730285259E+02  1.056583668E-01  0.00000E+00  9.000E+00
      21     1     1     2   511   501  5.918853845E+00  7.436972372E+00 -1.109434717E+02  1.113498779E+02  1.348699152E-06  0.00000E+00  9.000E+00
#pdf  -2  2 0.41641498E-03 0.10799246E+00 0.87177267E+02 0.20126459E+01 0.59678108E+00
#rwgt            1           4   1666.9245122153673         54217137    18554165           0
</event>
<event>
      6  10013  3.31628E+03  2.21161E+01 -1.00000E+00  1.62804E-01
      21    -1     0     0   501   511  0.000000000E+00  0.000000000E+00  3.061721372E+01  3.061721372E+01  0.000000000E+00  0.00000E+00  9.000E+00
      -5    -1     0     0     0   501  0.000000000E+00  0.000000000E+00 -1.355911815E+02  1.355911815E+02  0.000000000E+00  0.00000E+00  9.000E+00
      23     2     1     2     0     0  2.164772539E+01  4.527291127E+00 -5.297521712E+01  1.097018429E+02  9.348262050E+01  0.00000E+00  9.000E+00
      13     1     3     3     0     0 -5.187498863E+00  1.237920026E+01  2.416941285E+01  2.764645411E+01  1.056583668E-01  0.00000E+00  9.000E+00
     -13     1     3     3     0     0  2.683522425E+01 -7.851909136E+00 -7.714462997E+01  8.205538883E+01  1.056583668E-01  0.00000E+00  9.000E+00
      -5     1     1     2     0   511 -2.164772539E+01 -4.527291127E+00 -5.199875070E+01  5.650655231E+01  0.000000000E+00  0.00000E+00  9.000E+00
#pdf   5 -5 0.42463701E-02 0.12177474E-01 0.93482621E+02 0.39204217E+00 0.19140266E+00
#rwgt            1          10   124.25613599625473         54217137    18554249           0
</event>
<event>
      6  10013 -3.31628E+03  1.10184E+01 -1.00000E+00  1.90955E-01
      21    -1     0     0   511   501  0.000000000E+00  0.000000000E+00  2.783876361E+00  2.783876361E+00  0.000000000E+00  0.00000E+00  9.000E+00
       5    -1     0     0   501     0  0.000000000E+00  0.000000000E+00 -1.103782009E+02  1.103782009E+02  0.000000000E+00  0.00000E+00  9.000E+00
      23     2     1     2     0     0  2.229786802E-01 -1.101618331E+01 -7.723915859E+01  8.086901122E+01  2.127212596E+01  0.00000E+00  9.000E+00
      13     1     3     3     0     0 -6.446747274E+00  3.931379178E+00 -2.649685600E+01  2.755196607E+01  1.056583668E-01  0.00000E+00  9.000E+00
     -13     1     3     3     0     0  6.669725954E+00 -1.494756249E+01 -5.074230258E+01  5.331704515E+01  1.056583668E-01  0.00000E+00  9.000E+00
       5     1     1     2   511     0 -2.229786802E-01  1.101618331E+01 -3.035516595E+01  3.229306603E+01  0.000000000E+00  0.00000E+00  9.000E+00
#pdf  -5  5 0.24793331E-03 0.10799414E-01 0.21272126E+02 0.81648832E+00 0.12730889E+00
#rwgt            1           1  -132.36006370076666         54217137    18554463           0
</event>
<event>
      6  10013  3.31628E+03  1.07053E+00 -1.00000E+00  6.03102E-01
      21    -1     0     0   511   501  0.000000000E+00  0.000000000E+00  1.270630512E+02  1.270630512E+02  0.000000000E+00  0.00000E+00  9.000E+00
       1    -1     0     0   501     0  0.000000000E+00  0.000000000E+00 -1.608303111E+01  1.608303111E+01  0.000000000E+00  0.00000E+00  9.000E+00
      23     2     1     2     0     0 -1.023275401E+00 -3.145646077E-01  1.047707813E+02  1.368452340E+02  8.802587917E+01  0.00000E+00  9.000E+00
      13     1     3     3     0     0 -2.316122928E+01  1.154410257E+01  1.084212807E+02  1.114670091E+02  1.056583668E-01  0.00000E+00  9.000E+00
     -13     1     3     3     0     0  2.213795388E+01 -1.185866717E+01 -3.650499382E+00  2.537822489E+01  1.056583668E-01  0.00000E+00  9.000E+00
       1     1     1     2   511     0  1.023275401E+00  3.145646077E-01  6.209238761E+00  6.300848310E+00  0.000000000E+00  0.00000E+00  9.000E+00
#pdf  -1  1 0.18584473E-01 0.24670832E-02 0.88025879E+02 0.39366396E+00 0.10774356E+01
#rwgt            1           5   400.51827051480035         54217137    18554590           0
</event>
<event>
      6  10013  3.31628E+03  1.91446E+01 -1.00000E+00  1.67908E-01
       1    -1     0     0   501     0  0.000000000E+00  0.000000000E+00  1.753763503E+03  1.753763503E+03  0.000000000E+00  0.00000E+00  9.000E+00
      -1    -1     0     0     0   511  0.000000000E+00  0.000000000E+00 -3.575519288E+00  3.575519288E+00  0.000000000E+00  0.00000E+00  9.000E+00
      23     2     1     2     0     0  2.291002613E+00 -1.900698549E+01  1.712473121E+03  1.715043336E+03  9.188547582E+01  0.00000E+00  9.000E+00
      13     1     3     3     0     0 -4.122157923E+01 -7.165196568E+00  5.056808379E+02  5.074087894E+02  1.056583668E-01  0.00000E+00  9.000E+00
     -13     1     3     3     0     0  4.351258185E+01 -1.184178892E+01  1.206792283E+03  1.207634547E+03  1.056583668E-01  0.00000E+00  9.000E+00
      21     1     1     2   501   511 -2.291002613E+00  1.900698549E+01  3.771486242E+01  4.229568580E+01  2.078484985E-06  0.00000E+00  9.000E+00
#pdf   1 -1 0.25811221E+00 0.19355237E-03 0.91885476E+02 0.16879455E+00 0.27011852E+01
#rwgt            1           6   710.45425643630870         54217137    18554847           0
</event>
<event>
      6  10013  3.31628E+03  4.81905E+00 -1.00000E+00  2.45665E-01
       1    -1     0     0   501     0  0.000000000E+00  0.000000000E+00  1.713953665E+02  1.713953665E+02  0.000000000E+00  0.00000E+00  9.000E+00
      21    -1     0     0   511   501  0.000000000E+00  0.000000000E+00 -5.612948202E+01  5.612948202E+01  0.000000000E+00  0.00000E+00  9.000E+00
      23     2     1     2     0     0  2.575537753E+00  4.073058279E+00  1.597674172E+02  1.827631505E+02  8.862007889E+01  0.00000E+00  9.000E+00
      13     1     3     3     0     0  1.913011620E+01 -3.011781776E+01  2.721414912E+01  4.487388292E+01  1.056583668E-01  0.00000E+00  9.000E+00
     -13     1     3     3     0     0 -1.655457845E+01  3.419087603E+01  1.325532680E+02  1.378892675E+02  1.056583668E-01  0.00000E+00  9.000E+00
       1     1     1     2   511     0 -2.575537753E+00 -4.073058279E+00 -4.450153270E+01  4.476169804E+01  0.000000000E+00  0.00000E+00  9.000E+00
#pdf   1 -1 0.26309635E-01 0.17662930E-02 0.88620079E+02 0.51769222E+00 0.11560753E+01
#rwgt            1           6   655.67860229545067         54217137    18554903           0
</event>
<event>
      6  10013  3.31628E+03  1.26391E+01 -1.00000E+00  1.84638E-01
       2    -1     0     0   511     0  0.000000000E+00  0.000000000E+00  3.759910855E+02  3.759910855E+02  0.000000000E+00  0.00000E+00  9.000E+00
      -2    -1     0     0     0   501  0.000000000E+00  0.000000000E+00 -7.558097080E+00  7.558097080E+00  0.000000000E+00  0.00000E+00  9.000E+00
      23     2     1     2     0     0  1.236958960E+01  2.596261563E+00  3.097007551E+02  3.234723771E+02  9.252066656E+01  0.00000E+00  9.000E+00
      13     1     3     3     0     0  4.786019409E+01 -7.131070964E+00  2.381134751E+02  2.429804283E+02  1.056583668E-01  0.00000E+00  9.000E+00
     -13     1     3     3     0     0 -3.549060449E+01  9.727332527E+00  7.158727996E+01  8.049194880E+01  1.056583668E-01  0.00000E+00  9.000E+00
      21     1     1     2   511   501 -1.236958960E+01 -2.596261563E+00  5.873223332E+01  6.007680544E+01  9.536743164E-07  0.00000E+00  9.000E+00
#pdf   2 -2 0.48257419E-01 0.10496070E-02 0.92520667E+02 0.63423351E+00 0.14245789E+01
#rwgt            1           7   1409.8639875234026         54217137    18555008           0
</event>
<event>
      6  10013  3.31628E+03  4.34913E+00 -1.00000E+00  2.55090E-01
       2    -1     0     0   511     0  0.000000000E+00  0.000000000E+00  6.703812626E+01  6.703812626E+01  0.000000000E+00  0.00000E+00  9.000E+00
      -2    -1     0     0     0   501  0.000000000E+00  0.000000000E+00 -4.691776519E+00  4.691776519E+00  0.000000000E+00  0.00000E+00  9.000E+00
      23     2     1     2     0     0 -4.242313356E+00 -9.579730133E-01  4.844772741E+01  5.716670816E+01  3.003223760E+01  0.00000E+00  9.000E+00
      13     1     3     3     0     0 -8.822746178E+00 -3.847500731E+00  1.305013006E+00  9.713821834E+00  1.056583668E-01  0.00000E+00  9.000E+00
     -13     1     3     3     0     0  4.580432822E+00  2.889527717E+00  4.714271440E+01  4.745288632E+01  1.056583668E-01  0.00000E+00  9.000E+00
      21     1     1     2   511   501  4.242313356E+00  9.579730133E-01  1.389862233E+01  1.456319462E+01  2.384185791E-07  0.00000E+00  9.000E+00
#pdf   2 -2 0.80403161E-02 0.66376685E-03 0.30032238E+02 0.72554317E+00 0.13534511E+01
#rwgt            1           7   1322.3694567380064         54217137    18555061           0
</event>
<event>
      6  10013  3.31628E+03  1.75465E+00 -1.00000E+00  3.91605E-01
      21    -1     0     0   511   501  0.000000000E+00  0.000000000E+00  1.158453611E+02  1.158453611E+02  0.000000000E+00  0.00000E+00  9.000E+00
       3    -1     0     0   501     0  0.000000000E+00  0.000000000E+00 -2.005238873E+00  2.005238873E+00  0.000000000E+00  0.00000E+00  9.000E+00
      23     2     1     2     0     0 -1.679663620E+00  5.074861089E-01  9.300923528E+01  9.694594348E+01  2.728954558E+01  0.00000E+00  9.000E+00
      13     1     3     3     0     0  8.423002429E+00 -1.128576987E+00  9.241849637E+00  1.255562043E+01  1.056583668E-01  0.00000E+00  9.000E+00
     -13     1     3     3     0     0 -1.010266605E+01  1.636063096E+00  8.376738564E+01  8.439032305E+01  1.056583668E-01  0.00000E+00  9.000E+00
       3     1     1     2   511     0  1.679663620E+00 -5.074861089E-01  2.083088692E+01  2.090465646E+01  0.000000000E+00  0.00000E+00  9.000E+00
#pdf  -3  3 0.14581826E-01 0.30219968E-03 0.27289546E+02 0.35762606E+00 0.16650178E+01
#rwgt            1           3   133.60907915971322         54217137    18555145           0
</event>
<event>
      6  10013  3.31628E+03  4.21113E+00 -1.00000E+00  2.58212E-01
       2    -1     0     0   501     0  0.000000000E+00  0.000000000E+00  1.381208054E+01  1.381208054E+01  0.000000000E+00  0.00000E+00  9.000E+00
      21    -1     0     0   511   501  0.000000000E+00  0.000000000E+00 -1.624437433E+01  1.624437433E+01  0.000000000E+00  0.00000E+00  9.000E+00
      23     2     1     2     0     0  3.925868431E+00  1.523532144E+00 -5.027476718E+00  2.510988357E+01  2.423834024E+01  0.00000E+00  9.000E+00
      13     1     3     3     0     0 -5.476232272E+00  2.522000234E+00  7.367180089E+00  9.520299955E+00  1.056583668E-01  0.00000E+00  9.000E+00
     -13     1     3     3     0     0  9.402100703E+00 -9.984680906E-01 -1.239465681E+01  1.558958361E+01  1.056583668E-01  0.00000E+00  9.000E+00
       2     1     1     2   511     0 -3.925868431E+00 -1.523532144E+00  2.595182927E+00  4.946571293E+00  0.000000000E+00  0.00000E+00  9.000E+00
#pdf   2 -2 0.15220005E-02 0.22840429E-02 0.24238340E+02 0.10483428E+01 0.83482675E+00
#rwgt            1           7   669.39138867715667         54217137    18555250           0
</event>
<event>
      6  10013  3.31628E+03  4.88713E+00 -1.00000E+00  2.44433E-01
       2    -1     0     0   501     0  0.000000000E+00  0.000000000E+00  1.892023652E+03  1.892023652E+03  0.000000000E+00  0.00000E+00  9.000E+00
      21    -1     0     0   511   501  0.000000000E+00  0.000000000E+00 -8.556917623E-01  8.556917623E-01  0.000000000E+00  0.00000E+00  9.000E+00
      23     2     1     2     0     0 -4.804894470E+00 -8.927500267E-01  1.880205576E+03  1.880876932E+03  5.001142164E+01  0.00000E+00  9.000E+00
      13     1     3     3     0     0 -3.140868267E+00 -2.277870195E+01  5.370745787E+02  5.375665992E+02  1.056583668E-01  0.00000E+00  9.000E+00
     -13     1     3     3     0     0 -1.664026203E+00  2.188595192E+01  1.343130997E+03  1.343310333E+03  1.056583668E-01  0.00000E+00  9.000E+00
       2     1     1     2   511     0  4.804894470E+00  8.927500267E-01  1.096238420E+01  1.200241146E+01  0.000000000E+00  0.00000E+00  9.000E+00
#pdf   2 -2 0.28794249E+00 0.51397967E-04 0.50011422E+02 0.38530043E+00 0.36430974E+01
#rwgt            1           7   7503.7865319110233         54217137    18555360           0
</event>
<event>
      6  10013  3.31628E+03  5.76946E+00 -1.00000E+00  2.28067E-01
       4    -1     0     0   501     0  0.000000000E+00  0.000000000E+00  1.198869249E+02  1.198869249E+02  0.000000000E+00  0.00000E+00  9.000E+00
      21    -1     0     0   511   501  0.000000000E+00  0.000000000E+00 -2.585260999E+01  2.585260999E+01  0.000000000E+00  0.00000E+00  9.000E+00
      23     2     1     2     0     0  4.465839379E+00 -3.652804178E+00  1.020787452E+02  1.358400622E+02  8.943805440E+01  0.00000E+00  9.000E+00
      13     1     3     3     0     0 -1.497817697E+01  3.267430230E+01  8.296982446E+01  9.042100835E+01  1.056583668E-01  0.00000E+00  9.000E+00
     -13     1     3     3     0     0  1.944401635E+01 -3.632710647E+01  1.910892073E+01  4.541905384E+01  1.056583668E-01  0.00000E+00  9.000E+00
       4     1     1     2   511     0 -4.465839379E+00  3.652804178E+00 -8.044430324E+00  9.899472661E+00  0.000000000E+00  0.00000E+00  9.000E+00
#pdf   4 -4 0.18263487E-01 0.25916377E-02 0.89438054E+02 0.22514548E+00 0.75239445E+00
#rwgt            1           9   166.22178853987020         54217137    18555476           0
</event>
<event>
      6  10013  3.31628E+03  8.74660E+00 -1.00000E+00  2.02667E-01
      21    -1     0     0   501   511  0.000000000E+00  0.000000000E+00  4.224281612E+02  4.224281612E+02  0.000000000E+00  0.00000E+00  9.000E+00
      -2    -1     0     0     0   501  0.000000000E+00  0.000000000E+00 -1.151881697E+01  1.151881697E+01  0.000000000E+00  0.00000E+00  9.000E+00
      23     2     1     2     0     0 -7.425148478E+00 -4.622792963E+00  1.759875143E+02  1.988623780E+02  9.218534137E+01  0.00000E+00  9.000E+00
      13     1     3     3     0     0  2.965197209E+01 -3.165381763E+01  1.121541336E+02  1.202487608E+02  1.056583668E-01  0.00000E+00  9.000E+00
     -13     1     3     3     0     0 -3.707712057E+01  2.703102466E+01  6.383338070E+01  7.861361726E+01  1.056583668E-01  0.00000E+00  9.000E+00
      -2     1     1     2     0   511  7.425148478E+00  4.622792963E+00  2.349218300E+02  2.350846002E+02  0.000000000E+00  0.00000E+00  9.000E+00
#pdf   2 -2 0.28705688E-01 0.17517377E-02 0.92185341E+02 0.65526538E+00 0.11569807E+01
#rwgt            1           7   944.04695799653985         54217137    18555733           0
</event>
<event>
      6  10013  3.31628E+03  5.52321E+01 -1.00000E+00  1.36626E-01
      -2    -1     0     0     0   501  0.000000000E+00  0.000000000E+00  8.866815308E+01  8.866815308E+01  0.000000000E+00  0.00000E+00  9.000E+00
      21    -1     0     0   501   511  0.000000000E+00  0.000000000E+00 -8.076337001E+01  8.076337001E+01  0.000000000E+00  0.00000E+00  9.000E+00
      23     2     1     2     0     0 -3.119423114E+01  4.557967569E+01  2.730199575E+01  1.108923161E+02  9.220151793E+01  0.00000E+00  9.000E+00
      13     1     3     3     0     0 -1.492078896E+01 -9.284905881E+00  4.715169356E+01  5.032030196E+01  1.056583668E-01  0.00000E+00  9.000E+00
     -13     1     3     3     0     0 -1.627344217E+01  5.486458157E+01 -1.984969781E+01  6.057201415E+01  1.056583668E-01  0.00000E+00  9.000E+00
      -2     1     1     2     0   511  3.119423114E+01 -4.557967569E+01 -1.939721268E+01  5.853920697E+01  0.000000000E+00  0.00000E+00  9.000E+00
#pdf  -2  2 0.91193064E-02 0.55160428E-02 0.92201518E+02 0.54773876E+00 0.88162155E+00
#rwgt            1           4   341.14659427514107         54217137    18555839           0
</event>
<event>
      6  10013  3.31628E+03  2.38846E+01 -1.00000E+00  1.60212E-01
      -2    -1     0     0     0   501  0.000000000E+00  0.000000000E+00  2.569268323E+00  2.569268323E+00  0.000000000E+00  0.00000E+00  9.000E+00
       2    -1     0     0   511     0  0.000000000E+00  0.000000000E+00 -6.989812999E+02  6.989812999E+02  0.000000000E+00  0.00000E+00  9.000E+00
      23     2     1     2     0     0  1.996748429E+01  1.310617911E+01 -3.815712824E+02  3.858051491E+02  5.175419939E+01  0.00000E+00  9.000E+00
      13     1     3     3     0     0  3.079072689E+01  1.990764317E+01 -1.730183021E+02  1.768607564E+02  1.056583668E-01  0.00000E+00  9.000E+00
     -13     1     3     3     0     0 -1.082324260E+01 -6.801464060E+00 -2.085529803E+02  2.089443927E+02  1.056583668E-01  0.00000E+00  9.000E+00
      21     1     1     2   511   501 -1.996748429E+01 -1.310617911E+01 -3.148407492E+02  3.157454191E+02  3.814697266E-06  0.00000E+00  9.000E+00
#pdf  -2  2 0.29571040E-03 0.53596679E-01 0.51754199E+02 0.20380098E+01 0.63035080E+00
#rwgt            1           4   2694.6634047804000         54217137    18555950           0
</event>
<event>
      6  10013  3.31628E+03  1.43082E+01 -1.00000E+00  1.79289E-01
      21    -1     0     0   511   501  0.000000000E+00  0.000000000E+00  1.816796962E+01  1.816796962E+01  0.000000000E+00  0.00000E+00  9.000E+00
       2    -1     0     0   501     0  0.000000000E+00  0.000000000E+00 -1.538935094E+02  1.538935094E+02  0.000000000E+00  0.00000E+00  9.000E+00
      23     2     1     2     0     0  1.083719992E+00 -1.426712157E+01 -1.150590549E+02  1.469252739E+02  9.024258866E+01  0.00000E+00  9.000E+00
      13     1     3     3     0     0 -8.081062709E+00  3.886593786E-01  1.429252570E+01  1.642382676E+01  1.056583668E-01  0.00000E+00  9.000E+00
     -13     1     3     3     0     0  9.164782702E+00 -1.465578095E+01 -1.293515806E+02  1.305014472E+02  1.056583668E-01  0.00000E+00  9.000E+00
       2     1     1     2   511     0 -1.083719992E+00  1.426712157E+01 -2.066648488E+01  2.513620505E+01  0.000000000E+00  0.00000E+00  9.000E+00
#pdf  -2  2 0.24210057E-02 0.19904010E-01 0.90242589E+02 0.10074467E+01 0.67982615E+00
#rwgt            1           4   557.47630493241115         54217137    18555977           0
</event>
<event>
      6  10013  3.31628E+03  4.26485E+01 -1.00000E+00  1.43104E-01
      -2    -1     0     0     0   501  0.000000000E+00  0.000000000E+00  3.226977867E+00  3.226977867E+00  0.000000000E+00  0.00000E+00  9.000E+00
       2    -1     0     0   511     0  0.000000000E+00  0.000000000E+00 -1.768422233E+03  1.768422233E+03  0.000000000E+00  0.00000E+00  9.000E+00
      23     2     1     2     0     0  2.586778709E+01  3.390801964E+01 -9.635427339E+02  9.688630245E+02  9.198947770E+01  0.00000E+00  9.000E+00
      13     1     3     3     0     0  2.593649470E+01  7.706358659E+00 -8.961129578E+02  8.965213517E+02  1.056583668E-01  0.00000E+00  9.000E+00
     -13     1     3     3     0     0 -6.870760901E-02  2.620166098E+01 -6.742977607E+01  7.234167280E+01  1.056583668E-01  0.00000E+00  9.000E+00
      21     1     1     2   511   501 -2.586778709E+01 -3.390801964E+01 -8.016525213E+02  8.027861865E+02  1.078959322E-05  0.00000E+00  9.000E+00
#pdf  -2  2 0.37129006E-03 0.13485787E+00 0.91989478E+02 0.21229424E+01 0.57063155E+00
#rwgt            1           4   1660.1682374734442         54217137    18556027           0
</event>
<event>
      6  10013  3.31628E+03  4.91552E+00 -1.00000E+00  2.43928E-01
       1    -1     0     0   501     0  0.000000000E+00  0.000000000E+00  1.978280606E+02  1.978280606E+02  0.000000000E+00  0.00000E+00  9.000E+00
      21    -1     0     0   511   501  0.000000000E+00  0.000000000E+00 -1.198588349E+01  1.198588349E+01  0.000000000E+00  0.00000E+00  9.000E+00
      23     2     1     2     0     0  4.768620661E+00 -1.192727922E+00  1.718970320E+02  1.950278217E+02  9.199510469E+01  0.00000E+00  9.000E+00
      13     1     3     3     0     0 -1.673317022E+01 -1.108374169E+01 -1.401807008E+00  2.012025204E+01  1.056583668E-01  0.00000E+00  9.000E+00
     -13     1     3     3     0     0  2.150179088E+01  9.891013770E+00  1.732988390E+02  1.749075696E+02  1.056583668E-01  0.00000E+00  9.000E+00
       1     1     1     2   511     0 -4.768620661E+00  1.192727922E+00  1.394514512E+01  1.478612239E+01  0.000000000E+00  0.00000E+00  9.000E+00
#pdf   1 -1 0.28184783E-01 0.17767570E-02 0.91995105E+02 0.50950695E+00 0.11594315E+01
#rwgt            1           6   532.77741591999859         54217137    18556068           0
</event>
<event>
      6  10013  3.31628E+03  1.32474E+01 -1.00000E+00  1.82572E-01
       4    -1     0     0   501     0  0.000000000E+00  0.000000000E+00  2.018473583E+01  2.018473583E+01  0.000000000E+00  0.00000E+00  9.000E+00
      21    -1     0     0   511   501  0.000000000E+00  0.000000000E+00 -2.873128948E+01  2.873128948E+01  0.000000000E+00  0.00000E+00  9.000E+00
      23     2     1     2     0     0 -5.463408389E+00 -1.206839090E+01 -1.822397251E+01  3.251031516E+01  2.343741725E+01  0.00000E+00  9.000E+00
      13     1     3     3     0     0 -4.363098838E+00  2.537028928E+00  3.618696405E+00  6.211221668E+00  1.056583668E-01  0.00000E+00  9.000E+00
     -13     1     3     3     0     0 -1.100309551E+00 -1.460541983E+01 -2.184266891E+01  2.629909349E+01  1.056583668E-01  0.00000E+00  9.000E+00
       4     1     1     2   511     0  5.463408389E+00  1.206839090E+01  9.677418858E+00  1.640571016E+01  0.000000000E+00  0.00000E+00  9.000E+00
#pdf   4 -4 0.95670082E-03 0.33974780E-02 0.23437417E+02 0.84325812E+00 0.49492427E+00
#rwgt            1           9   330.49548174565331         54217137    18556161           0
</event>
<event>
      6  10013  3.31628E+03  7.46009E+00 -1.00000E+00  2.11650E-01
       2    -1     0     0   501     0  0.000000000E+00  0.000000000E+00  6.628985599E+01  6.628985599E+01  0.000000000E+00  0.00000E+00  9.000E+00
      -2    -1     0     0     0   511  0.000000000E+00  0.000000000E+00 -3.970321405E+01  3.970321405E+01  0.000000000E+00  0.00000E+00  9.000E+00
      23     2     1     2     0     0  7.460086962E+00  2.112004626E-03  2.702900939E+01  9.851987856E+01  9.444546692E+01  0.00000E+00  9.000E+00
      13     1     3     3     0     0  2.276139242E+01 -7.974759493E+00  5.813982035E+01  6.294384520E+01  1.056583668E-01  0.00000E+00  9.000E+00
     -13     1     3     3     0     0 -1.530130546E+01  7.976871497E+00 -3.111081096E+01  3.557603336E+01  1.056583668E-01  0.00000E+00  9.000E+00
      21     1     1     2   501   511 -7.460086962E+00 -2.112004626E-03 -4.423674499E-01  7.473191480E+00  1.590136138E-07  0.00000E+00  9.000E+00
#pdf   2 -2 0.96276194E-02 0.54822220E-02 0.94445467E+02 0.77077534E+00 0.70374812E+00
#rwgt            1           7   638.46323416117241         54217137    18556276           0
</event>
<event>
      6  10013  3.31628E+03  3.42929E+00 -1.00000E+00  2.80164E-01
      -2    -1     0     0     0   501  0.000000000E+00  0.000000000E+00  2.100567501E+01  2.100567501E+01  0.000000000E+00  0.00000E+00  9.000E+00
       2    -1     0     0   511     0  0.000000000E+00  0.000000000E+00 -8.323839888E+02  8.323839888E+02  0.000000000E+00  0.00000E+00  9.000E+00
      23     2     1     2     0     0  1.755575541E+00 -2.945840724E+00 -7.829330948E+01  1.202966386E+02  9.126707476E+01  0.00000E+00  9.000E+00
      13     1     3     3     0     0 -1.256152459E+01 -4.085589635E+01 -6.471886608E+01  7.755990560E+01  1.056583668E-01  0.00000E+00  9.000E+00
     -13     1     3     3     0     0  1.431710013E+01  3.791005563E+01 -1.357444341E+01  4.273673304E+01  1.056583668E-01  0.00000E+00  9.000E+00
      21     1     1     2   511   501 -1.755575541E+00  2.945840724E+00 -7.330850043E+02  7.330930252E+02  0.000000000E+00  0.00000E+00  9.000E+00
#pdf  -2  2 0.32287469E-02 0.15265378E-01 0.91267075E+02 0.89113581E+00 0.70594653E+00
#rwgt            1           4   627.70842917613902         54217137    18556392           0
</event>
<event>
      6  10013  3.31628E+03  1.88773E+01 -1.00000E+00  1.68423E-01
       2    -1     0     0   501     0  0.000000000E+00  0.000000000E+00  1.241177160E+03  1.241177160E+03  0.000000000E+00  0.00000E+00  9.000E+00
      21    -1     0     0   511   501  0.000000000E+00  0.000000000E+00 -3.710339380E+00  3.710339380E+00  0.000000000E+00  0.00000E+00  9.000E+00
      23     2     1     2     0     0  1.817875903E+01  5.087748005E+00  1.193730457E+03  1.197251148E+03  8.978616288E+01  0.00000E+00  9.000E+00
      13     1     3     3     0     0  5.382004760E+00 -1.141656657E+01  2.222125561E+01  2.555580818E+01  1.056583668E-01  0.00000E+00  9.000E+00
     -13     1     3     3     0     0  1.279675427E+01  1.650431457E+01  1.171509202E+03  1.171695340E+03  1.056583668E-01  0.00000E+00  9.000E+00
       2     1     1     2   511     0 -1.817875903E+01 -5.087748005E+00  4.373636268E+01  4.763635041E+01  0.000000000E+00  0.00000E+00  9.000E+00
#pdf   2 -2 0.17998662E+00 0.26502809E-03 0.89786163E+02 0.51809478E+00 0.23933103E+01
#rwgt            1           7   1655.1577079769656         54217137    18556627           0
</event>
<event>
      6  10013  3.31628E+03  1.17885E+00 -1.00000E+00  5.46406E-01
      -2    -1     0     0     0   511  0.000000000E+00  0.000000000E+00  7.792868235E+01  7.792868235E+01  0.000000000E+00  0.00000E+00  9.000E+00
       2    -1     0     0   501     0  0.000000000E+00  0.000000000E+00 -2.633277736E+01  2.633277736E+01  0.000000000E+00  0.00000E+00  9.000E+00
      23     2     1     2     0     0  4.889283618E-01 -1.072674303E+00  5.026315069E+01  1.024821578E+02  8.930184028E+01  0.00000E+00  9.000E+00
      13     1     3     3     0     0  1.819582978E+00 -1.915017570E+01 -2.127550502E+01  2.868271934E+01  1.056583668E-01  0.00000E+00  9.000E+00
     -13     1     3     3     0     0 -1.330654616E+00  1.807750139E+01  7.153865571E+01  7.379943850E+01  1.056583668E-01  0.00000E+00  9.000E+00
      21     1     1     2   501   511 -4.889283618E-01  1.072674303E+00  1.332754306E+00  1.779301870E+00  2.580956828E-08  0.00000E+00  9.000E+00
#pdf  -2  2 0.11748616E-01 0.40164968E-02 0.89301840E+02 0.47882112E+00 0.96162705E+00
#rwgt            1           4   427.93150159302854         54217137    18556680           0
</event>
<event>
      6  10013  3.31628E+03  3.90362E+00 -1.00000E+00  2.65881E-01
       2    -1     0     0   501     0  0.000000000E+00  0.000000000E+00  2.581423407E+00  2.581423407E+00  0.000000000E+00  0.00000E+00  9.000E+00
      -2    -1     0     0     0   511  0.000000000E+00  0.000000000E+00 -6.877566018E+01  6.877566018E+01  0.000000000E+00  0.00000E+00  9.000E+00
      23     2     1     2     0     0 -2.675283775E+00 -2.842732227E+00 -5.615079952E+01  6.058169953E+01  2.240517264E+01  0.00000E+00  9.000E+00
      13     1     3     3     0     0 -1.984735586E+00  8.336479229E+00 -4.012160458E+01  4.102670324E+01  1.056583668E-01  0.00000E+00  9.000E+00
     -13     1     3     3     0     0 -6.905481888E-01 -1.117921146E+01 -1.602919494E+01  1.955499629E+01  1.056583668E-01  0.00000E+00  9.000E+00
      21     1     1     2   501   511  2.675283775E+00  2.842732227E+00 -1.004343725E+01  1.077538406E+01  0.000000000E+00  0.00000E+00  9.000E+00
#pdf   2 -2 0.33578016E-03 0.88461614E-02 0.22405173E+02 0.16048271E+01 0.48322106E+00
#rwgt            1           7   1002.6504075308392         54217137    18557053           0
</event>
<event>
      6  10013  3.31628E+03  3.34053E+01 -1.00000E+00  1.49832E-01
       1    -1     0     0   501     0  0.000000000E+00  0.000000000E+00  4.605003220E+02  4.605003220E+02  0.000000000E+00  0.00000E+00  9.000E+00
      21    -1     0     0   511   501  0.000000000E+00  0.000000000E+00 -1.043081750E+01  1.043081750E+01  0.000000000E+00  0.00000E+00  9.000E+00
      23     2     1     2     0     0 -3.261202855E+01  7.236666605E+00  2.545341870E+02  2.725628604E+02  9.158027512E+01  0.00000E+00  9.000E+00
      13     1     3     3     0     0  2.442795176E+01 -4.704535031E+00  2.325258692E+01  3.405218699E+01  1.056583668E-01  0.00000E+00  9.000E+00
     -13     1     3     3     0     0 -5.703998030E+01  1.194120164E+01  2.312816001E+02  2.385106734E+02  1.056583668E-01  0.00000E+00  9.000E+00
       1     1     1     2   511     0  3.261202855E+01 -7.236666605E+00  1.955353175E+02  1.983682791E+02  0.000000000E+00  0.00000E+00  9.000E+00
#pdf   1 -1 0.38090967E-01 0.13028523E-02 0.91580275E+02 0.47430773E+00 0.13129030E+01
#rwgt            1           6   802.77642667570638         54217137    18557140           0
</event>
<event>
      6  10013  3.31628E+03  1.06022E+00 -1.00000E+00  6.09507E-01
       2    -1     0     0   511     0  0.000000000E+00  0.000000000E+00  7.868619084E+02  7.868619084E+02  0.000000000E+00  0.00000E+00  9.000E+00
      -2    -1     0     0     0   501  0.000000000E+00  0.000000000E+00 -7.897153002E-01  7.897153002E-01  0.000000000E+00  0.00000E+00  9.000E+00
      23     2     1     2     0     0 -4.148298065E-01 -9.756927360E-01  7.616337288E+02  7.631901725E+02  4.870501426E+01  0.00000E+00  9.000E+00
      13     1     3     3     0     0 -2.212456912E+01  5.812285701E+00  2.479270249E+02  2.489801198E+02  1.056583668E-01  0.00000E+00  9.000E+00
     -13     1     3     3     0     0  2.170973931E+01 -6.787978437E+00  5.137067040E+02  5.142100527E+02  1.056583668E-01  0.00000E+00  9.000E+00
      21     1     1     2   511   501  4.148298065E-01  9.756927360E-01  2.443846422E+01  2.446145118E+01  0.000000000E+00  0.00000E+00  9.000E+00
#pdf   2 -2 0.11726637E+00 0.11969808E-03 0.48705014E+02 0.60098298E+00 0.27355163E+01
#rwgt            1           7   5561.9992563931301         54217137    18557169           0
</event>
<event>
      6  10013  3.31628E+03  9.71879E+00 -1.00000E+00  1.97141E-01
      21    -1     0     0   511   501  0.000000000E+00  0.000000000E+00  6.365395291E+00  6.365395291E+00  0.000000000E+00  0.00000E+00  9.000E+00
       2    -1     0     0   501     0  0.000000000E+00  0.000000000E+00 -4.602256730E+01  4.602256730E+01  0.000000000E+00  0.00000E+00  9.000E+00
      23     2     1     2     0     0 -7.583087675E+00  6.078786294E+00 -3.368754811E+01  4.098220654E+01  2.121875336E+01  0.00000E+00  9.000E+00
      13     1     3     3     0     0 -5.665181446E+00  1.403813488E+01 -2.122398970E+01  2.606976053E+01  1.056583668E-01  0.00000E+00  9.000E+00
     -13     1     3     3     0     0 -1.917906230E+00 -7.959348583E+00 -1.246355841E+01  1.491244601E+01  1.056583668E-01  0.00000E+00  9.000E+00
       2     1     1     2   511     0  7.583087675E+00 -6.078786294E+00 -5.969623897E+00  1.140575605E+01  0.000000000E+00  0.00000E+00  9.000E+00
#pdf  -2  2 0.51016027E-03 0.52221145E-02 0.21218753E+02 0.13512400E+01 0.75465071E+00
#rwgt            1           4   778.70899694602144         54217137    18557344           0
</event>
<event>
      6  10013  3.31628E+03  2.88037E+01 -1.00000E+00  1.54242E-01
       2    -1     0     0   501     0  0.000000000E+00  0.000000000E+00  2.934173195E+02  2.934173195E+02  0.000000000E+00  0.00000E+00  9.000E+00
      -2    -1     0     0     0   511  0.000000000E+00  0.000000000E+00 -1.384977257E+01  1.384977257E+01  0.000000000E+00  0.00000E+00  9.000E+00
      23     2     1     2     0     0  1.405471303E+00 -2.876934006E+01  2.393261053E+02  2.577794785E+02  9.134344288E+01  0.00000E+00  9.000E+00
      13     1     3     3     0     0 -5.616061029E+00 -4.418869351E+01  2.364312967E+02  2.405908352E+02  1.056583668E-01  0.00000E+00  9.000E+00
     -13     1     3     3     0     0  7.021532332E+00  1.541935345E+01  2.894808673E+00  1.718864329E+01  1.056583668E-01  0.00000E+00  9.000E+00
      21     1     1     2   501   511 -1.405471303E+00  2.876934006E+01  4.024144157E+01  4.948761357E+01  1.066240300E-06  0.00000E+00  9.000E+00
#pdf   2 -2 0.36468715E-01 0.13537784E-02 0.91343443E+02 0.64397699E+00 0.12838572E+01
#rwgt            1           7   866.64975949212771         54217137    18557427           0
</event>
<event>
      6  10013  3.31628E+03  5.00217E+00 -1.00000E+00  2.38396E-01
      21    -1     0     0   501   511  0.000000000E+00  0.000000000E+00  8.076632955E+01  8.076632955E+01  0.000000000E+00  0.00000E+00  9.000E+00
      -4    -1     0     0     0   501  0.000000000E+00  0.000000000E+00 -6.931747326E+01  6.931747326E+01  0.000000000E+00  0.00000E+00  9.000E+00
      23     2     1     2     0     0  5.001884804E+00 -5.337964827E-02 -3.802386384E+01  1.003588419E+02  9.274190651E+01  0.00000E+00  9.000E+00
      13     1     3     3     0     0 -2.198819742E+01 -3.673345258E+01 -3.394561878E+01  5.463646733E+01  1.056583668E-01  0.00000E+00  9.000E+00
     -13     1     3     3     0     0  2.699008222E+01  3.668007293E+01 -4.078245058E+00  4.572237456E+01  1.056583668E-01  0.00000E+00  9.000E+00
      -4     1     1     2     0   511 -5.001884804E+00  5.337964827E-02  4.947272013E+01  4.972496092E+01  0.000000000E+00  0.00000E+00  9.000E+00
#pdf   4 -4 0.47880388E-02 0.10629374E-01 0.92741907E+02 0.54791408E+00 0.33628909E+00
#rwgt            1           9   149.55786563872803         54217137    18557474           0
</event>
<event>
      6  10013  3.31628E+03  1.95485E+01 -1.00000E+00  1.67149E-01
      -1    -1     0     0     0   501  0.000000000E+00  0.000000000E+00  8.378107719E+02  8.378107719E+02  0.000000000E+00  0.00000E+00  9.000E+00
       1    -1     0     0   511     0  0.000000000E+00  0.000000000E+00 -7.187658134E+00  7.187658134E+00  0.000000000E+00  0.00000E+00  9.000E+00
      23     2     1     2     0     0  1.385954519E+01 -1.378606512E+01  8.134315618E+02  8.189659111E+02  9.301674689E+01  0.00000E+00  9.000E+00
      13     1     3     3     0     0 -2.556472408E+01 -2.766859121E+00  7.287150760E+01  7.727534154E+01  1.056583668E-01  0.00000E+00  9.000E+00
     -13     1     3     3     0     0  3.942426928E+01 -1.101920600E+01  7.405600542E+02  7.416905695E+02  1.056583668E-01  0.00000E+00  9.000E+00
      21     1     1     2   511   501 -1.385954519E+01  1.378606512E+01  1.719155201E+01  2.603251899E+01  8.920806376E-07  0.00000E+00  9.000E+00
#pdf  -1  1 0.12288460E+00 0.41661809E-03 0.93016747E+02 0.88241944E-01 0.20713196E+01
#rwgt            1           5   513.62752470502119         54217137    18557730           0
</event>
<event>
      6  10013  3.31628E+03  4.21297E+01 -1.00000E+00  1.43426E-01
      -1    -1     0     0     0   501  0.000000000E+00  0.000000000E+00  7.612295966E+01  7.612295966E+01  0.000000000E+00  0.00000E+00  9.000E+00
       1    -1     0     0   511     0  0.000000000E+00  0.000000000E+00 -7.176406143E+01  7.176406143E+01  0.000000000E+00  0.00000E+00  9.000E+00
      23     2     1     2     0     0  1.749174655E+01  3.832686368E+01  2.752530167E+01  9.980800357E+01  8.619214389E+01  0.00000E+00  9.000E+00
      13     1     3     3     0     0  7.856315720E+00  5.028313437E+01  5.081036546E+01  7.191536484E+01  1.056583668E-01  0.00000E+00  9.000E+00
     -13     1     3     3     0     0  9.635430827E+00 -1.195627069E+01 -2.328506379E+01  2.789263873E+01  1.056583668E-01  0.00000E+00  9.000E+00
      21     1     1     2   511   501 -1.749174655E+01 -3.832686368E+01 -2.316640344E+01  4.807901752E+01  5.840038640E-07  0.00000E+00  9.000E+00
#pdf  -1  1 0.87999083E-02 0.49954028E-02 0.86192144E+02 0.57285167E+00 0.84108764E+00
#rwgt            1           5   535.32052903874580         54217137    18557778           0
</event>
<event>
      6  10013  3.31628E+03  5.99665E+00 -1.00000E+00  2.25431E-01
      -1    -1     0     0     0   511  0.000000000E+00  0.000000000E+00  1.756670456E+00  1.756670456E+00  0.000000000E+00  0.00000E+00  9.000E+00
       1    -1     0     0   501     0  0.000000000E+00  0.000000000E+00 -1.903765078E+02  1.903765078E+02  0.000000000E+00  0.00000E+00  9.000E+00
      23     2     1     2     0     0 -3.659877191E+00  4.750281028E+00 -1.715692210E+02  1.740587934E+02  2.871421402E+01  0.00000E+00  9.000E+00
      13     1     3     3     0     0  6.472361089E+00  4.468241320E+00 -1.320219819E+01  1.536768816E+01  1.056583668E-01  0.00000E+00  9.000E+00
     -13     1     3     3     0     0 -1.013223828E+01  2.820397083E-01 -1.583670228E+02  1.586911053E+02  1.056583668E-01  0.00000E+00  9.000E+00
      21     1     1     2   501   511  3.659877191E+00 -4.750281028E+00 -1.705061630E+01  1.807438484E+01  2.384185791E-07  0.00000E+00  9.000E+00
#pdf  -1  1 0.18746124E-03 0.26025296E-01 0.28714214E+02 0.20397122E+01 0.50128434E+00
#rwgt            1           5   343.94124047496638         54217137    18557825           0
</event>
<event>
      6  10013  3.31628E+03  5.75850E+01 -1.00000E+00  1.35636E-01
      21    -1     0     0   511   501  0.000000000E+00  0.000000000E+00  1.200176752E+02  1.200176752E+02  0.000000000E+00  0.00000E+00  9.000E+00
       3    -1     0     0   501     0  0.000000000E+00  0.000000000E+00 -5.807833809E+01  5.807833809E+01  0.000000000E+00  0.00000E+00  9.000E+00
      23     2     1     2     0     0  9.072823687E+00  5.686580513E+01  3.751300283E+01  1.155445806E+02  9.288319980E+01  0.00000E+00  9.000E+00
      13     1     3     3     0     0 -2.017472306E+01  2.067267630E+00 -2.171845590E+01  2.971524081E+01  1.056583668E-01  0.00000E+00  9.000E+00
     -13     1     3     3     0     0  2.924754675E+01  5.479853750E+01  5.923145874E+01  8.582933980E+01  1.056583668E-01  0.00000E+00  9.000E+00
       3     1     1     2   511     0 -9.072823687E+00 -5.686580513E+01  2.442633426E+01  6.255143266E+01  0.000000000E+00  0.00000E+00  9.000E+00
#pdf  -3  3 0.10006589E-01 0.51015434E-02 0.92883200E+02 0.48953093E+00 0.69339796E+00
#rwgt            1           3   486.64360987169380         54217137    18557877           0
</event>
<event>
      6  10013  3.31628E+03  7.75880E+00 -1.00000E+00  2.09357E-01
       2    -1     0     0   511     0  0.000000000E+00  0.000000000E+00  6.081167663E+01  6.081167663E+01  0.000000000E+00  0.00000E+00  9.000E+00
      -2    -1     0     0     0   501  0.000000000E+00  0.000000000E+00 -2.283196418E+02  2.283196418E+02  0.000000000E+00  0.00000E+00  9.000E+00
      23     2     1     2     0     0 -7.006526080E+00  3.332803595E+00 -2.186174787E+02  2.374362378E+02  9.231557852E+01  0.00000E+00  9.000E+00
      13     1     3     3     0     0  2.761190778E+01  4.803962985E+00 -1.682234673E+01  3.268788805E+01  1.056583668E-01  0.00000E+00  9.000E+00
     -13     1     3     3     0     0 -3.461843386E+01 -1.471159390E+00 -2.017951320E+02  2.047483497E+02  1.056583668E-01  0.00000E+00  9.000E+00
      21     1     1     2   511   501  7.006526080E+00 -3.332803595E+00  5.110951353E+01  5.169508063E+01  9.536743164E-07  0.00000E+00  9.000E+00
#pdf   2 -2 0.14425110E-02 0.34957805E-01 0.92315579E+02 0.13442322E+01 0.24250959E+00
#rwgt            1           7   385.94093758449930         54217137    18557902           0
</event>
<event>
      6  10013  3.31628E+03  2.30307E+00 -1.00000E+00  3.36520E-01
      21    -1     0     0   501   511  0.000000000E+00  0.000000000E+00  3.608384751E+00  3.608384751E+00  0.000000000E+00  0.00000E+00  9.000E+00
      -1    -1     0     0     0   501  0.000000000E+00  0.000000000E+00 -5.248155251E+01  5.248155251E+01  0.000000000E+00  0.00000E+00  9.000E+00
      23     2     1     2     0     0  1.044299580E+00  2.052694192E+00 -4.350615205E+01  5.024964852E+01  2.503872589E+01  0.00000E+00  9.000E+00
      13     1     3     3     0     0  4.442884950E+00 -9.516142410E+00 -9.473892475E+00  1.414432732E+01  1.056583668E-01  0.00000E+00  9.000E+00
     -13     1     3     3     0     0 -3.398585370E+00  1.156883660E+01 -3.403225958E+01  3.610532120E+01  1.056583668E-01  0.00000E+00  9.000E+00
      -1     1     1     2     0   511 -1.044299580E+00 -2.052694192E+00 -5.367015704E+00  5.840288745E+00  0.000000000E+00  0.00000E+00  9.000E+00
#pdf   1 -1 0.51655000E-03 0.71816689E-02 0.25038726E+02 0.14405102E+01 0.55176482E+00
#rwgt            1           6   135.88216994819538         54217137    18557995           0
</event>
<event>
      6  10013  3.31628E+03  2.02644E+00 -1.00000E+00  3.60220E-01
      21    -1     0     0   511   501  0.000000000E+00  0.000000000E+00  7.683650668E-01  7.683650668E-01  0.000000000E+00  0.00000E+00  9.000E+00
       2    -1     0     0   501     0  0.000000000E+00  0.000000000E+00 -3.495913983E+03  3.495913983E+03  0.000000000E+00  0.00000E+00  9.000E+00
      23     2     1     2     0     0  1.977285603E+00 -4.436030102E-01 -3.489172083E+03  3.490374451E+03  9.158536526E+01  0.00000E+00  9.000E+00
      13     1     3     3     0     0 -7.745427646E+00 -1.003720601E+01 -3.410622050E+03  3.410645616E+03  1.056583668E-01  0.00000E+00  9.000E+00
     -13     1     3     3     0     0  9.722713249E+00  9.593602998E+00 -7.855003312E+01  7.972883568E+01  1.056583668E-01  0.00000E+00  9.000E+00
       2     1     1     2   511     0 -1.977285603E+00  4.436030102E-01 -5.973535069E+00  6.307896893E+00  0.000000000E+00  0.00000E+00  9.000E+00
#pdf  -2  2 0.92467238E-04 0.53675682E+00 0.91585365E+02 0.35060112E+01 0.80325514E-01
#rwgt            1           4   2434.0413808277049         54217137    18558099           0
</event>
<event>
      6  10013  3.31628E+03  6.78425E+00 -1.00000E+00  2.17421E-01
      21    -1     0     0   511   501  0.000000000E+00  0.000000000E+00  1.728148698E+00  1.728148698E+00  0.000000000E+00  0.00000E+00  9.000E+00
       2    -1     0     0   501     0  0.000000000E+00  0.000000000E+00 -1.931547789E+03  1.931547789E+03  0.000000000E+00  0.00000E+00  9.000E+00
      23     2     1     2     0     0  5.441345423E+00  4.051888706E+00 -1.910636934E+03  1.912928892E+03  9.336716098E+01  0.00000E+00  9.000E+00
      13     1     3     3     0     0 -1.103746441E+01 -3.810265906E+01 -5.019770353E+02  5.035420473E+02  1.056583668E-01  0.00000E+00  9.000E+00
     -13     1     3     3     0     0  1.647880983E+01  4.215454777E+01 -1.408659899E+03  1.409386845E+03  1.056583668E-01  0.00000E+00  9.000E+00
       2     1     1     2   511     0 -5.441345423E+00 -4.051888706E+00 -1.918270627E+01  2.034704553E+01  0.000000000E+00  0.00000E+00  9.000E+00
#pdf  -2  2 0.17584088E-03 0.29334706E+00 0.93367161E+02 0.28017020E+01 0.35284514E+00
#rwgt            1           4   1521.2154843571075         54217137    18558445           0
</event>
<event>
      6  10013  3.31628E+03  1.03046E+01 -1.00000E+00  1.94205E-01
      21    -1     0     0   511   501  0.000000000E+00  0.000000000E+00  9.396975224E-01  9.396975224E-01  0.000000000E+00  0.00000E+00  9.000E+00
       2    -1     0     0   501     0  0.000000000E+00  0.000000000E+00 -3.011689258E+03  3.011689258E+03  0.000000000E+00  0.00000E+00  9.000E+00
      23     2     1     2     0     0 -4.894792654E+00  9.067898209E+00 -2.886584204E+03  2.888036735E+03  9.100344858E+01  0.00000E+00  9.000E+00
      13     1     3     3     0     0  2.262333942E+01  3.520001136E+01 -2.204920975E+03  2.205317975E+03  1.056583668E-01  0.00000E+00  9.000E+00
     -13     1     3     3     0     0 -2.751813207E+01 -2.613211315E+01 -6.816632297E+02  6.827187597E+02  1.056583668E-01  0.00000E+00  9.000E+00
       2     1     1     2   511     0  4.894792654E+00 -9.067898209E+00 -1.241653560E+02  1.245922205E+02  0.000000000E+00  0.00000E+00  9.000E+00
#pdf  -2  2 0.11102362E-03 0.44138096E+00 0.91003449E+02 0.32826413E+01 0.16136727E+00
#rwgt            1           4   3781.8343469324282         54217137    18558563           0
</event>
<event>
      6  10013  3.31628E+03  2.66280E+01 -1.00000E+00  1.56689E-01
       1    -1     0     0   511     0  0.000000000E+00  0.000000000E+00  1.408063878E+02  1.408063878E+02  0.000000000E+00  0.00000E+00  9.000E+00
      -1    -1     0     0     0   501  0.000000000E+00  0.000000000E+00 -4.734874970E+01  4.734874970E+01  0.000000000E+00  0.00000E+00  9.000E+00
      23     2     1     2     0     0 -2.566207810E+01 -7.107050665E+00  7.002098295E+00  9.769181463E+01  9.373157869E+01  0.00000E+00  9.000E+00
      13     1     3     3     0     0 -2.233195161E+01  2.970228164E+01 -2.820063433E+01  4.665006471E+01  1.056583668E-01  0.00000E+00  9.000E+00
     -13     1     3     3     0     0 -3.330126490E+00 -3.680933230E+01  3.520273263E+01  5.104174992E+01  1.056583668E-01  0.00000E+00  9.000E+00
      21     1     1     2   511   501  2.566207810E+01  7.107050665E+00  8.645553985E+01  9.046332291E+01  0.000000000E+00  0.00000E+00  9.000E+00
#pdf   1 -1 0.77468344E-02 0.67105928E-02 0.93731579E+02 0.73321868E+00 0.65484605E+00
#rwgt            1           6   454.04300475846628         54217137    18558710           0
</event>
<event>
      6  10013  3.31628E+03  9.37108E+00 -1.00000E+00  1.99015E-01
      -2    -1     0     0     0   501  0.000000000E+00  0.000000000E+00  3.586057788E+00  3.586057788E+00  0.000000000E+00  0.00000E+00  9.000E+00
       2    -1     0     0   511     0  0.000000000E+00  0.000000000E+00 -1.082184445E+03  1.082184445E+03  0.000000000E+00  0.00000E+00  9.000E+00
      23     2     1     2     0     0  8.884971396E+00  2.978996191E+00 -6.947515851E+02  7.018093268E+02  9.883698256E+01  0.00000E+00  9.000E+00
      13     1     3     3     0     0  1.124272045E+01 -1.497609257E+01 -6.740276864E+02  6.742877838E+02  1.056583668E-01  0.00000E+00  9.000E+00
     -13     1     3     3     0     0 -2.357749052E+00  1.795508876E+01 -2.072389863E+01  2.752154304E+01  1.056583668E-01  0.00000E+00  9.000E+00
      21     1     1     2   511   501 -8.884971396E+00 -2.978996191E+00 -3.838468017E+02  3.839611755E+02  0.000000000E+00  0.00000E+00  9.000E+00
#pdf  -2  2 0.54047930E-03 0.10694813E+00 0.98836983E+02 0.18666332E+01 0.59540531E+00
#rwgt            1           4   2072.8777481541988         54217137    18558747           0
</event>
<event>
      6  10013  3.31628E+03  1.87856E+01 -1.00000E+00  1.68603E-01
       1    -1     0     0   501     0  0.000000000E+00  0.000000000E+00  9.772493808E+00  9.772493808E+00  0.000000000E+00  0.00000E+00  9.000E+00
      21    -1     0     0   511   501  0.000000000E+00  0.000000000E+00 -3.202460862E+02  3.202460862E+02  0.000000000E+00  0.00000E+00  9.000E+00
      23     2     1     2     0     0 -1.845150778E+01  3.527078576E+00 -2.577545950E+02  2.740525983E+02  9.118386354E+01  0.00000E+00  9.000E+00
      13     1     3     3     0     0 -9.413002778E+00 -4.360399540E+01 -1.383978539E+02  1.454093881E+02  1.056583668E-01  0.00000E+00  9.000E+00
     -13     1     3     3     0     0 -9.038504999E+00  4.713107398E+01 -1.193567411E+02  1.286432101E+02  1.056583668E-01  0.00000E+00  9.000E+00
       1     1     1     2   511     0  1.845150778E+01 -3.527078576E+00 -5.271899745E+01  5.596598176E+01  0.000000000E+00  0.00000E+00  9.000E+00
#pdf   1 -1 0.12279049E-02 0.40066789E-01 0.91183864E+02 0.13928803E+01 0.24969030E+00
#rwgt            1           6   448.56278545984014         54217137    18558850           0
</event>
<event>
      6  10013  3.31628E+03  4.35331E+00 -1.00000E+00  2.54998E-01
       1    -1     0     0   501     0  0.000000000E+00  0.000000000E+00  1.891400250E+02  1.891400250E+02  0.000000000E+00  0.00000E+00  9.000E+00
      -1    -1     0     0     0   511  0.000000000E+00  0.000000000E+00 -1.207512664E+01  1.207512664E+01  0.000000000E+00  0.00000E+00  9.000E+00
      23     2     1     2     0     0 -4.351099124E+00 -1.386379624E-01  1.697938264E+02  1.927404970E+02  9.110435997E+01  0.00000E+00  9.000E+00
      13     1     3     3     0     0 -2.337402176E+01 -3.031648357E+01  1.432457660E+02  1.482727038E+02  1.056583668E-01  0.00000E+00  9.000E+00
     -13     1     3     3     0     0  1.902292264E+01  3.017784560E+01  2.654806045E+01  4.446779316E+01  1.056583668E-01  0.00000E+00  9.000E+00
      21     1     1     2   501   511  4.351099124E+00  1.386379624E-01  7.271071882E+00  8.474654588E+00  1.192092896E-07  0.00000E+00  9.000E+00
#pdf   1 -1 0.27855473E-01 0.17631168E-02 0.91104360E+02 0.51085770E+00 0.11614779E+01
#rwgt            1           6   937.54903373294735         54217137    18558926           0
</event>
<event>
      6  10013  3.31628E+03  2.35381E+00 -1.00000E+00  3.32812E-01
       2    -1     0     0   501     0  0.000000000E+00  0.000000000E+00  2.563925267E+02  2.563925267E+02  0.000000000E+00  0.00000E+00  9.000E+00
      -2    -1     0     0     0   511  0.000000000E+00  0.000000000E+00 -8.225227649E+00  8.225227649E+00  0.000000000E+00  0.00000E+00  9.000E+00
      23     2     1     2     0     0  6.109963962E-01  2.273121850E+00  2.454884937E+02  2.610517485E+02  8.875739103E+01  0.00000E+00  9.000E+00
      13     1     3     3     0     0  1.592466001E+01 -3.075760090E+01  4.250929025E+01  5.483316269E+01  1.056583668E-01  0.00000E+00  9.000E+00
     -13     1     3     3     0     0 -1.531366362E+01  3.303072275E+01  2.029792035E+02  2.062185859E+02  1.056583668E-01  0.00000E+00  9.000E+00
      21     1     1     2   501   511 -6.109963962E-01 -2.273121850E+00  2.678805348E+00  3.566005838E+00  5.960464478E-08  0.00000E+00  9.000E+00
#pdf   2 -2 0.38950940E-01 0.11967527E-02 0.88757391E+02 0.64121743E+00 0.13430374E+01
#rwgt            1           7   985.55357589161781         54217137    18558997           0
</event>
<event>
      6  10013  3.31628E+03  1.70009E+01 -1.00000E+00  1.72364E-01
       2    -1     0     0   501     0  0.000000000E+00  0.000000000E+00  1.602865018E+03  1.602865018E+03  0.000000000E+00  0.00000E+00  9.000E+00
      21    -1     0     0   511   501  0.000000000E+00  0.000000000E+00 -3.792966773E-01  3.792966773E-01  0.000000000E+00  0.00000E+00  9.000E+00
      23     2     1     2     0     0 -1.973095724E+00  1.688604497E+01  1.041578152E+03  1.042079158E+03  2.747532388E+01  0.00000E+00  9.000E+00
      13     1     3     3     0     0 -1.365400881E+00  2.228258084E+01  9.820488929E+02  9.823026097E+02  1.056583668E-01  0.00000E+00  9.000E+00
     -13     1     3     3     0     0 -6.076948430E-01 -5.396535871E+00  5.952925935E+01  5.977654870E+01  1.056583668E-01  0.00000E+00  9.000E+00
       2     1     1     2   511     0  1.973095724E+00 -1.688604497E+01  5.609075687E+02  5.611651560E+02  0.000000000E+00  0.00000E+00  9.000E+00
#pdf   2 -2 0.13629851E+00 0.32772369E-04 0.27475324E+02 0.60076442E+00 0.34553200E+01
#rwgt            1           7   2898.7784283813517         54217137    18559407           0
</event>
<event>
      6  10013  3.31628E+03  1.95165E+01 -1.00000E+00  1.67209E-01
      21    -1     0     0   511   501  0.000000000E+00  0.000000000E+00  2.179213651E+01  2.179213651E+01  0.000000000E+00  0.00000E+00  9.000E+00
       2    -1     0     0   501     0  0.000000000E+00  0.000000000E+00 -9.082478305E+01  9.082478305E+01  0.000000000E+00  0.00000E+00  9.000E+00
      23     2     1     2     0     0 -1.286748449E+01  1.467378714E+01 -8.231157222E+01  8.901136823E+01  2.769361960E+01  0.00000E+00  9.000E+00
      13     1     3     3     0     0  3.791240194E+00  1.438877096E+01 -2.291767468E+01  2.732473620E+01  1.056583668E-01  0.00000E+00  9.000E+00
     -13     1     3     3     0     0 -1.665872469E+01  2.850161811E-01 -5.939389754E+01  6.168663203E+01  1.056583668E-01  0.00000E+00  9.000E+00
       2     1     1     2   511     0  1.286748449E+01 -1.467378714E+01  1.327892569E+01  2.360555133E+01  0.000000000E+00  0.00000E+00  9.000E+00
#pdf  -2  2 0.42126890E-03 0.10772422E-01 0.27693620E+02 0.15463527E+01 0.68642090E+00
#rwgt            1           4   1238.8978825312975         54217137    18559443           0
</event>
<event>
      6  10013  3.31628E+03  1.15362E+01 -1.00000E+00  1.88792E-01
       4    -1     0     0   501     0  0.000000000E+00  0.000000000E+00  2.314664228E+01  2.314664228E+01  0.000000000E+00  0.00000E+00  9.000E+00
      -4    -1     0     0     0   511  0.000000000E+00  0.000000000E+00 -1.456940946E+01  1.456940946E+01  0.000000000E+00  0.00000E+00  9.000E+00
      23     2     1     2     0     0 -1.146871650E+01 -1.245520283E+00  6.505203497E+00  2.599529731E+01  2.236861710E+01  0.00000E+00  9.000E+00
      13     1     3     3     0     0 -1.087553038E+00 -1.384293576E+00  1.341055620E+01  1.352602017E+01  1.056583668E-01  0.00000E+00  9.000E+00
     -13     1     3     3     0     0 -1.038116346E+01  1.387732932E-01 -6.905352703E+00  1.246927714E+01  1.056583668E-01  0.00000E+00  9.000E+00
      21     1     1     2   501   511  1.146871650E+01  1.245520283E+00  2.072029321E+00  1.172075443E+01  1.737759082E-07  0.00000E+00  9.000E+00
#pdf   4 -4 0.22219478E-02 0.13324709E-02 0.22368617E+02 0.59037862E+00 0.72935836E+00
#rwgt            1           9   357.22492985602463         54217137    18559490           0
</event>
<event>
      6  10013  3.31628E+03  3.66894E+00 -1.00000E+00  2.72520E-01
      -3    -1     0     0     0   501  0.000000000E+00  0.000000000E+00  2.553327711E-01  2.553327711E-01  0.000000000E+00  0.00000E+00  9.000E+00
       3    -1     0     0   511     0  0.000000000E+00  0.000000000E+00 -6.469595464E+02  6.469595464E+02  0.000000000E+00  0.00000E+00  9.000E+00
      23     2     1     2     0     0  2.143959228E+00 -2.977337731E+00 -5.348596952E+02  5.353101992E+02  2.164843404E+01  0.00000E+00  9.000E+00
      13     1     3     3     0     0  2.449131573E+00 -6.636902548E+00 -5.182827902E+02  5.183310800E+02  1.056583668E-01  0.00000E+00  9.000E+00
     -13     1     3     3     0     0 -3.051723459E-01  3.659564817E+00 -1.657690498E+01  1.697911916E+01  1.056583668E-01  0.00000E+00  9.000E+00
      21     1     1     2   511   501 -2.143959228E+00  2.977337731E+00 -1.118445184E+02  1.119046800E+02  1.907348633E-06  0.00000E+00  9.000E+00
#pdf  -3  3 0.34166940E-04 0.81163391E-01 0.21648434E+02 0.30329968E+01 0.87805652E-01
#rwgt            1           3   52.344258248114954         54217137    18559543           0
</event>
<event>
      6  10013  3.31628E+03  1.13784E+01 -1.00000E+00  1.89436E-01
      -2    -1     0     0     0   501  0.000000000E+00  0.000000000E+00  2.062348071E-01  2.062348071E-01  0.000000000E+00  0.00000E+00  9.000E+00
       2    -1     0     0   511     0  0.000000000E+00  0.000000000E+00 -2.929442984E+03  2.929442984E+03  0.000000000E+00  0.00000E+00  9.000E+00
      23     2     1     2     0     0 -9.736019987E+00  5.888754980E+00 -2.118472846E+03  2.118805477E+03  3.577682215E+01  0.00000E+00  9.000E+00
      13     1     3     3     0     0 -1.329097304E+01 -6.745520800E+00 -3.927654663E+02  3.930481836E+02  1.056583668E-01  0.00000E+00  9.000E+00
     -13     1     3     3     0     0  3.554953050E+00  1.263427578E+01 -1.725707380E+03  1.725757293E+03  1.056583668E-01  0.00000E+00  9.000E+00
      21     1     1     2   511   501  9.736019987E+00 -5.888754980E+00 -8.107639026E+02  8.108437416E+02  0.000000000E+00  0.00000E+00  9.000E+00
#pdf  -2  2 0.24383499E-04 0.31061383E+00 0.35776822E+02 0.41469188E+01 0.36602595E+00
#rwgt            1           4   15562.893431744164         54217137    18559671           0
</event>
<event>
      6  10013  3.31628E+03  2.01410E+01 -1.00000E+00  1.66076E-01
       4    -1     0     0   511     0  0.000000000E+00  0.000000000E+00  4.757014876E+01  4.757014876E+01  0.000000000E+00  0.00000E+00  9.000E+00
      -4    -1     0     0     0   501  0.000000000E+00  0.000000000E+00 -1.382003196E+01  1.382003196E+01  0.000000000E+00  0.00000E+00  9.000E+00
      23     2     1     2     0     0  1.963309109E+01  4.494777964E+00  1.094571387E+01  3.096482801E+01  2.081707536E+01  0.00000E+00  9.000E+00
      13     1     3     3     0     0  2.213507811E+01  2.837045667E+00  3.058262789E+00  2.252497827E+01  1.056583668E-01  0.00000E+00  9.000E+00
     -13     1     3     3     0     0 -2.501987015E+00  1.657732297E+00  7.887451080E+00  8.439849739E+00  1.056583668E-01  0.00000E+00  9.000E+00
      21     1     1     2   511   501 -1.963309109E+01 -4.494777964E+00  2.280440293E+01  3.042535271E+01  3.371747881E-07  0.00000E+00  9.000E+00
#pdf   4 -4 0.23169442E-02 0.11067185E-02 0.20817075E+02 0.56745400E+00 0.76601513E+00
#rwgt            1           9   343.59571423977110         54217137    18559698           0
</event>
<event>
      6  10013  3.31628E+03  3.00091E+01 -1.00000E+00  1.52996E-01
       1    -1     0     0   501     0  0.000000000E+00  0.000000000E+00  1.255739841E+03  1.255739841E+03  0.000000000E+00  0.00000E+00  9.000E+00
      21    -1     0     0   511   501  0.000000000E+00  0.000000000E+00 -3.646731266E+00  3.646731266E+00  0.000000000E+00  0.00000E+00  9.000E+00
      23     2     1     2     0     0 -1.094374039E+01  2.794244827E+01  1.107837642E+03  1.112042805E+03  9.183905819E+01  0.00000E+00  9.000E+00
      13     1     3     3     0     0  2.850630797E+01  3.755420358E+00  8.204355841E+02  8.209392619E+02  1.056583668E-01  0.00000E+00  9.000E+00
     -13     1     3     3     0     0 -3.945004836E+01  2.418702791E+01  2.874020577E+02  2.911035427E+02  1.056583668E-01  0.00000E+00  9.000E+00
       1     1     1     2   511     0  1.094374039E+01 -2.794244827E+01  1.442554682E+02  1.473437680E+02  0.000000000E+00  0.00000E+00  9.000E+00
#pdf   1 -1 0.16231455E+00 0.30747561E-03 0.91839058E+02 0.27684409E+00 0.22814996E+01
#rwgt            1           6   1212.9336913655486         54217137    18559915           0
</event>
<event>
      6  10013  3.31628E+03  2.01784E+00 -1.00000E+00  3.61069E-01
       2    -1     0     0   501     0  0.000000000E+00  0.000000000E+00  2.424249000E+00  2.424249000E+00  0.000000000E+00  0.00000E+00  9.000E+00
      -2    -1     0     0     0   511  0.000000000E+00  0.000000000E+00 -9.223368659E+02  9.223368659E+02  0.000000000E+00  0.00000E+00  9.000E+00
      23     2     1     2     0     0 -5.673961728E-01 -1.936420084E+00 -8.435536300E+02  8.483754713E+02  9.030028809E+01  0.00000E+00  9.000E+00
      13     1     3     3     0     0 -2.639213470E+00  7.088814174E+00 -3.612338465E+00  8.383131098E+00  1.056583668E-01  0.00000E+00  9.000E+00
     -13     1     3     3     0     0  2.071817297E+00 -9.025234258E+00 -8.399412915E+02  8.399923402E+02  1.056583668E-01  0.00000E+00  9.000E+00
      21     1     1     2   501   511  5.673961728E-01  1.936420084E+00 -7.635898690E+01  7.638564356E+01  0.000000000E+00  0.00000E+00  9.000E+00
#pdf   2 -2 0.37081830E-03 0.13011591E+00 0.90300288E+02 0.21592532E+01 0.59022090E-01
#rwgt            1           7   274.42172978446740         54217137    18559957           0
</event>
<event>
      6  10013  3.31628E+03  2.16374E+00 -1.00000E+00  3.47646E-01
      -2    -1     0     0     0   501  0.000000000E+00  0.000000000E+00  1.744185856E+03  1.744185856E+03  0.000000000E+00  0.00000E+00  9.000E+00
      21    -1     0     0   501   511  0.000000000E+00  0.000000000E+00 -2.021744433E-01  2.021744433E-01  0.000000000E+00  0.00000E+00  9.000E+00
      23     2     1     2     0     0 -2.109023607E+00 -4.835223697E-01  1.734937653E+03  1.735086826E+03  2.264843543E+01  0.00000E+00  9.000E+00
      13     1     3     3     0     0  2.001264005E+00  1.066113603E+01  8.686258835E+02  8.686936177E+02  1.056583668E-01  0.00000E+00  9.000E+00
     -13     1     3     3     0     0 -4.110287612E+00 -1.114465840E+01  8.663117698E+02  8.663932084E+02  1.056583668E-01  0.00000E+00  9.000E+00
      -2     1     1     2     0   511  2.109023607E+00  4.835223697E-01  9.046028570E+00  9.301204618E+00  0.000000000E+00  0.00000E+00  9.000E+00
#pdf  -2  2 0.26571511E+00 0.11422823E-04 0.22648435E+02 0.16553515E-01 0.43815940E+01
#rwgt            1           4   78.736096879929036         54217137    18560151           0
</event>
<event>
      6  10013  3.31628E+03  4.51128E+01 -1.00000E+00  1.41643E-01
      21    -1     0     0   511   501  0.000000000E+00  0.000000000E+00  2.417580911E+02  2.417580911E+02  0.000000000E+00  0.00000E+00  9.000E+00
       2    -1     0     0   501     0  0.000000000E+00  0.000000000E+00 -2.277669836E+01  2.277669836E+01  0.000000000E+00  0.00000E+00  9.000E+00
      23     2     1     2     0     0 -1.061510768E+01  4.384610541E+01  1.401899164E+02  1.737423988E+02  9.218485225E+01  0.00000E+00  9.000E+00
      13     1     3     3     0     0  2.143312929E+01 -1.908155264E+01  2.239454689E+01  3.640070846E+01  1.056583668E-01  0.00000E+00  9.000E+00
     -13     1     3     3     0     0 -3.204823697E+01  6.292765805E+01  1.177953696E+02  1.373416903E+02  1.056583668E-01  0.00000E+00  9.000E+00
       2     1     1     2   511     0  1.061510768E+01 -4.384610541E+01  7.879147629E+01  9.079239069E+01  0.000000000E+00  0.00000E+00  9.000E+00
#pdf  -2  2 0.21690616E-01 0.23182514E-02 0.92184852E+02 0.33633797E+00 0.11459891E+01
#rwgt            1           4   394.22104384474522         54217137    18560283           0
</event>
<event>
      6  10013  3.31628E+03  8.24899E+00 -1.00000E+00  2.05880E-01
      21    -1     0     0   501   511  0.000000000E+00  0.000000000E+00  1.363149852E+02  1.363149852E+02  0.000000000E+00  0.00000E+00  9.000E+00
      -3    -1     0     0     0   501  0.000000000E+00  0.000000000E+00 -2.455549497E+01  2.455549497E+01  0.000000000E+00  0.00000E+00  9.000E+00
      23     2     1     2     0     0  6.677386717E+00 -4.843375465E+00  6.666499723E+01  1.150277154E+02  9.337616229E+01  0.00000E+00  9.000E+00
      13     1     3     3     0     0 -1.488365519E+01 -2.192225155E+01 -1.388199717E+01  2.991369776E+01  1.056583668E-01  0.00000E+00  9.000E+00
     -13     1     3     3     0     0  2.156104190E+01  1.707887608E+01  8.054699439E+01  8.511401768E+01  1.056583668E-01  0.00000E+00  9.000E+00
      -3     1     1     2     0   511 -6.677386717E+00  4.843375465E+00  4.509449295E+01  4.584276468E+01  0.000000000E+00  0.00000E+00  9.000E+00
#pdf   3 -3 0.13922142E-01 0.37057769E-02 0.93376162E+02 0.40439750E+00 0.80688815E+00
#rwgt            1           8   323.03756293859925         54217137    18560325           0
</event>
<event>
      5  10013  3.31628E+03  8.94427E-01 -1.00000E+00  7.22336E-01
      -2    -1     0     0     0   501  0.000000000E+00  0.000000000E+00  1.961119054E-01  1.961119054E-01  0.000000000E+00  0.00000E+00  9.000E+00
       2    -1     0     0   501     0  0.000000000E+00  0.000000000E+00 -5.716228861E+02  5.716228861E+02  0.000000000E+00  0.00000E+00  9.000E+00
      23     2     1     2     0     0  0.000000000E+00  0.000000000E+00 -5.714267742E+02  5.718189980E+02  2.117565143E+01  0.00000E+00  9.000E+00
      13     1     3     3     0     0  2.430357092E+00 -1.025057017E+01 -3.141642897E+02  3.143408864E+02  1.056583668E-01  0.00000E+00  9.000E+00
     -13     1     3     3     0     0 -2.430357092E+00  1.025057017E+01 -2.572624845E+02  2.574781116E+02  1.056583668E-01  0.00000E+00  9.000E+00
#pdf  -2  2 0.30171062E-04 0.87941982E-01 0.21175651E+02 0.32153022E+01 0.62830933E+00
#rwgt            1           4   2719.9629197184845         54217137    18560448           0
</event>
<event>
      6  10013  3.31628E+03  1.22329E+01 -1.00000E+00  1.86102E-01
      21    -1     0     0   511   501  0.000000000E+00  0.000000000E+00  6.155258985E+00  6.155258985E+00  0.000000000E+00  0.00000E+00  9.000E+00
       3    -1     0     0   501     0  0.000000000E+00  0.000000000E+00 -4.307523039E+02  4.307523039E+02  0.000000000E+00  0.00000E+00  9.000E+00
      23     2     1     2     0     0  1.081123237E+01  5.723716938E+00 -3.922677043E+02  4.023412505E+02  8.862779705E+01  0.00000E+00  9.000E+00
      13     1     3     3     0     0 -3.015964646E+01  3.113164961E-01 -5.656133332E+01  6.410067693E+01  1.056583668E-01  0.00000E+00  9.000E+00
     -13     1     3     3     0     0  4.097087883E+01  5.412400442E+00 -3.357063709E+02  3.382405736E+02  1.056583668E-01  0.00000E+00  9.000E+00
       3     1     1     2   511     0 -1.081123237E+01 -5.723716938E+00 -3.232934066E+01  3.456631234E+01  0.000000000E+00  0.00000E+00  9.000E+00
#pdf  -3  3 0.76761079E-03 0.60549720E-01 0.88627797E+02 0.15569702E+01 0.12245768E+00
#rwgt            1           3   187.76417128514643         54217137    18560762           0
</event>
<event>
      6  10013  3.31628E+03  1.75398E+01 -1.00000E+00  1.71170E-01
      21    -1     0     0   511   501  0.000000000E+00  0.000000000E+00  1.404779954E+00  1.404779954E+00  0.000000000E+00  0.00000E+00  9.000E+00
       2    -1     0     0   501     0  0.000000000E+00  0.000000000E+00 -2.014191970E+03  2.014191970E+03  0.000000000E+00  0.00000E+00  9.000E+00
      23     2     1     2     0     0 -7.330893452E+00 -1.593432500E+01 -1.698163333E+03  1.700484363E+03  8.706733054E+01  0.00000E+00  9.000E+00
      13     1     3     3     0     0 -2.971149919E+01 -4.358162682E+01 -1.100720061E+03  1.101983119E+03  1.056583668E-01  0.00000E+00  9.000E+00
     -13     1     3     3     0     0  2.238060573E+01  2.764730182E+01 -5.974432718E+02  5.985012440E+02  1.056583668E-01  0.00000E+00  9.000E+00
       2     1     1     2   511     0  7.330893452E+00  1.593432500E+01 -3.146238575E+02  3.151123870E+02  0.000000000E+00  0.00000E+00  9.000E+00
#pdf  -2  2 0.17502465E-03 0.25628579E+00 0.87067331E+02 0.27636108E+01 0.41068875E+00
#rwgt            1           4   1395.0027373959406         54217137    18560809           0
</event>
<event>
      6  10013  3.31628E+03  8.10959E+00 -1.00000E+00  2.06835E-01
      21    -1     0     0   501   511  0.000000000E+00  0.000000000E+00  6.901260884E+02  6.901260884E+02  0.000000000E+00  0.00000E+00  9.000E+00
      -4    -1     0     0     0   501  0.000000000E+00  0.000000000E+00 -3.565659293E-01  3.565659293E-01  0.000000000E+00  0.00000E+00  9.000E+00
      23     2     1     2     0     0 -3.092848449E+00  7.496652054E+00  5.712486508E+02  5.716846639E+02  2.079827920E+01  0.00000E+00  9.000E+00
      13     1     3     3     0     0  2.504458203E+00  1.370008073E+01  3.402555047E+02  3.405404295E+02  1.056583668E-01  0.00000E+00  9.000E+00
     -13     1     3     3     0     0 -5.597306652E+00 -6.203428677E+00  2.309931461E+02  2.311442343E+02  1.056583668E-01  0.00000E+00  9.000E+00
      -4     1     1     2     0   511  3.092848449E+00 -7.496652054E+00  1.185208717E+02  1.187979905E+02  0.000000000E+00  0.00000E+00  9.000E+00
#pdf   4 -4 0.81911470E-01 0.31248083E-04 0.20798279E+02 0.39961777E-01 0.25310609E+01
#rwgt            1           9   53.240964732891563         54217137    18560900           0
</event>
<event>
      6  10013  3.31628E+03  3.73261E+00 -1.00000E+00  2.70642E-01
       2    -1     0     0   501     0  0.000000000E+00  0.000000000E+00  5.418085154E+00  5.418085154E+00  0.000000000E+00  0.00000E+00  9.000E+00
      -2    -1     0     0     0   511  0.000000000E+00  0.000000000E+00 -4.470627423E+01  4.470627423E+01  0.000000000E+00  0.00000E+00  9.000E+00
      23     2     1     2     0     0 -1.731853478E+00  3.306520721E+00 -2.433983040E+01  3.471702921E+01  2.447268637E+01  0.00000E+00  9.000E+00
      13     1     3     3     0     0 -4.192108530E+00 -2.315467287E+00  3.675124434E+00  6.037620887E+00  1.056583668E-01  0.00000E+00  9.000E+00
     -13     1     3     3     0     0  2.460255053E+00  5.621988008E+00 -2.801495483E+01  2.867940832E+01  1.056583668E-01  0.00000E+00  9.000E+00
      21     1     1     2   501   511  1.731853478E+00 -3.306520721E+00 -1.494835868E+01  1.540733017E+01  0.000000000E+00  0.00000E+00  9.000E+00
#pdf   2 -2 0.78912025E-03 0.44909001E-02 0.24472686E+02 0.12713084E+01 0.64736836E+00
#rwgt            1           7   685.56007650156766         54217137    18560969           0
</event>
<event>
      6  10013  3.31628E+03  2.94902E+01 -1.00000E+00  1.53523E-01
      21    -1     0     0   511   501  0.000000000E+00  0.000000000E+00  1.486066656E+02  1.486066656E+02  0.000000000E+00  0.00000E+00  9.000E+00
       3    -1     0     0   501     0  0.000000000E+00  0.000000000E+00 -2.792811261E+01  2.792811261E+01  0.000000000E+00  0.00000E+00  9.000E+00
      23     2     1     2     0     0 -1.215470843E+01 -2.686883398E+01  6.989068992E+01  1.178059249E+02  9.013243715E+01  0.00000E+00  9.000E+00
      13     1     3     3     0     0 -3.479875716E+01 -4.977081573E+01  3.406312145E+01  6.963041724E+01  1.056583668E-01  0.00000E+00  9.000E+00
     -13     1     3     3     0     0  2.264404873E+01  2.290198176E+01  3.582756846E+01  4.817550765E+01  1.056583668E-01  0.00000E+00  9.000E+00
       3     1     1     2   511     0  1.215470843E+01  2.686883398E+01  5.078786309E+01  5.872885333E+01  0.000000000E+00  0.00000E+00  9.000E+00
#pdf  -3  3 0.13722371E-01 0.35030501E-02 0.90132437E+02 0.40703002E+00 0.82449941E+00
#rwgt            1           3   440.52977254463809         54217137    18561035           0
</event>
<event>
      6  10013  3.31628E+03  6.99803E+00 -1.00000E+00  2.15500E-01
      -2    -1     0     0     0   501  0.000000000E+00  0.000000000E+00  2.134659391E+01  2.134659391E+01  0.000000000E+00  0.00000E+00  9.000E+00
       2    -1     0     0   511     0  0.000000000E+00  0.000000000E+00 -1.262388362E+02  1.262388362E+02  0.000000000E+00  0.00000E+00  9.000E+00
      23     2     1     2     0     0 -5.424280694E+00 -4.421487687E+00 -8.498793024E+01  1.264867569E+02  9.341830122E+01  0.00000E+00  9.000E+00
      13     1     3     3     0     0  1.929314845E+01 -1.951580940E+01  8.409151161E+00  2.870221909E+01  1.056583668E-01  0.00000E+00  9.000E+00
     -13     1     3     3     0     0 -2.471742914E+01  1.509432171E+01 -9.339708140E+01  9.778453778E+01  1.056583668E-01  0.00000E+00  9.000E+00
      21     1     1     2   511   501  5.424280694E+00  4.421487687E+00 -1.990431206E+01  2.109867325E+01  2.384185791E-07  0.00000E+00  9.000E+00
#pdf  -2  2 0.31832982E-02 0.16221832E-01 0.93418301E+02 0.89917795E+00 0.70014377E+00
#rwgt            1           4   479.51189433075189         54217137    18561126           0
</event>
<event>
      6  10013 -3.31628E+03  2.35695E+00 -1.00000E+00  3.32588E-01
      21    -1     0     0   501   511  0.000000000E+00  0.000000000E+00  1.045936725E+01  1.045936725E+01  0.000000000E+00  0.00000E+00  9.000E+00
      -4    -1     0     0     0   501  0.000000000E+00  0.000000000E+00 -2.043399633E+01  2.043399633E+01  0.000000000E+00  0.00000E+00  9.000E+00
      23     2     1     2     0     0  1.084145609E+00 -2.092806479E+00 -1.500494618E+01  2.533824874E+01  2.028110521E+01  0.00000E+00  9.000E+00
      13     1     3     3     0     0  3.593075217E+00 -8.191174860E+00 -1.632237119E+01  1.861280474E+01  1.056583668E-01  0.00000E+00  9.000E+00
     -13     1     3     3     0     0 -2.508929608E+00  6.098368381E+00  1.317425013E+00  6.725444003E+00  1.056583668E-01  0.00000E+00  9.000E+00
      -4     1     1     2     0   511 -1.084145609E+00  2.092806479E+00  5.030317103E+00  5.555114834E+00  0.000000000E+00  0.00000E+00  9.000E+00
#pdf   4 -4 0.78955556E-03 0.30825763E-02 0.20281105E+02 0.86252332E+00 0.49673919E+00
#rwgt            1           9  -994.81112438652406         54217137    18561268           0
</event>
<event>
      6  10013  3.31628E+03  1.24387E+01 -1.00000E+00  1.85351E-01
       2    -1     0     0   501     0  0.000000000E+00  0.000000000E+00  1.011641748E+03  1.011641748E+03  0.000000000E+00  0.00000E+00  9.000E+00
      21    -1     0     0   511   501  0.000000000E+00  0.000000000E+00 -7.569162285E-01  7.569162285E-01  0.000000000E+00  0.00000E+00  9.000E+00
      23     2     1     2     0     0  6.268967909E-01  1.242290324E+01  6.960157637E+02  6.972840001E+02  4.015360436E+01  0.00000E+00  9.000E+00
      13     1     3     3     0     0  1.321969126E+01  1.279650528E+01  1.501801095E+02  1.513029650E+02  1.056583668E-01  0.00000E+00  9.000E+00
     -13     1     3     3     0     0 -1.259279447E+01 -3.736020386E-01  5.458356542E+02  5.459810350E+02  1.056583668E-01  0.00000E+00  9.000E+00
       2     1     1     2   511     0 -6.268967909E-01 -1.242290324E+01  3.148690678E+02  3.151146639E+02  0.000000000E+00  0.00000E+00  9.000E+00
#pdf   2 -2 0.10237723E+00 0.93187789E-04 0.40153604E+02 0.61427895E+00 0.28149837E+01
#rwgt            1           7   2053.8166374139009         54217137    18561419           0
</event>
<event>
      6  10013  3.31628E+03  4.99886E+00 -1.00000E+00  2.42474E-01
       2    -1     0     0   501     0  0.000000000E+00  0.000000000E+00  2.945118097E+01  2.945118097E+01  0.000000000E+00  0.00000E+00  9.000E+00
      21    -1     0     0   511   501  0.000000000E+00  0.000000000E+00 -4.038658676E+01  4.038658676E+01  0.000000000E+00  0.00000E+00  9.000E+00
      23     2     1     2     0     0 -2.619598292E+00  4.257496709E+00  2.369950966E+01  3.484396910E+01  2.504888923E+01  0.00000E+00  9.000E+00
      13     1     3     3     0     0 -5.260990648E+00 -9.701693204E+00  7.760202038E+00  1.349195216E+01  1.056583668E-01  0.00000E+00  9.000E+00
     -13     1     3     3     0     0  2.641392356E+00  1.395918991E+01  1.593930762E+01  2.135201695E+01  1.056583668E-01  0.00000E+00  9.000E+00
       2     1     1     2   511     0  2.619598292E+00 -4.257496709E+00 -3.463491545E+01  3.499379862E+01  0.000000000E+00  0.00000E+00  9.000E+00
#pdf   2 -2 0.44162625E-02 0.84068899E-03 0.25048889E+02 0.80147556E+00 0.11950670E+01
#rwgt            1           7   693.94440256240773         54217137    18561444           0
</event>
</LesHouchesEvents>
